! Touchstone file exported from HFSS 2020.1.3
!        File:           /home/erdoel/scratch/P2S30/WR12_SIW_MS_Transition.aedt
!        Generated:      12:29:48 PM  Feb 07, 2021
!        Design:         Design1_Al
!        Project:        WR12_SIW_MS_Transition
!        Setup:          Setup1
!        Solution:       Sweep
!
! Variables:
!        T_L2 = 35um
!        fil = 0.3mm
!        hm = 0.4mm
!        hsub = 0.127mm
!        hwg = 1.55mm
!        l1 = 1.05mm
!        lcav = 1.92mm
!        lt = 0.7mm
!        offx = 0um
!        offy = 0um
!        rvia = 0.075mm
!        s1 = 1.33mm
!        shift = 20um
!        sl = 3.1mm
!        sy = 0.65mm
!        th = 35um
!        w1 = 1.2mm
!        w50 = 300um
!        wcav = 3.5mm
!        wm = 1.9mm
!        wslot = 1.5mm
!        wt = 0.6mm
!        wwg = 3.1mm
!
!Data is not renormalized
# GHZ S RI
! Terminal data exported
! Port[1] = MS
! Port[2] = WG
70                             0.860529369892729 0.186292447496582 -0.218143715862711 0.167838638024449 -0.218143715862711 0.167838638024449 0.133149462888054 0.913299940324253 
! Gamma         0.293091812840837 1043.92307249166 0                0                0                0                2.91060613706894 2282.20949762374 
! Port Impedance538.285879911284 0.0908936897092764 0                0                0                0                53.9660088982981 -0.0125704297862929 

70.1                           0.880573677569266 0.105130883904072 -0.186708214231811 0.158319612924084 -0.186708214231811 0.158319612924083 0.175109737877863 0.912279912396735 
! Gamma         0.292638888227222 1046.86682217655 0                0                0                0                2.91383169322685 2285.56325629407 
! Port Impedance537.539017913422 0.0901509209163966 0                0                0                0                53.9757850563054 -0.0125492012575511 

70.2                           0.892463881137316 0.0189637972166148 -0.155244201849565 0.143052653462432 -0.155244201849565 0.143052653462431 0.220301736168104 0.907999427333805 
! Gamma         0.29219008212624 1049.80650195091 0                0                0                0                2.91705668264259 2288.91723597655 
! Port Impedance536.79842546859  0.089417182765232 0                0                0                0                53.9855579884566 -0.0125280421765032 

70.3                           0.894813880264676 -0.0715431729078952 -0.124704622053994 0.121424208614182 -0.124704622053995 0.12142420861418 0.268657133102236 0.899590021764835 
! Gamma         0.291745344681655 1052.74214590853 0                0                0                0                2.9202811072541  2292.27143642772 
! Port Impedance536.064024105371 0.0886923243087005 0                0                0                0                53.995327711812  -0.0125069523651259 

70.4                           0.886158005976578 -0.165357150052653 -0.0963167248405195 0.0929318048088695 -0.096316724840521 0.0929318048088684 0.319912672905715 0.886060520997325 
! Gamma         0.291304626863566 1055.67378771737 0                0                0                0                2.92350496899508 2295.62585740486 
! Port Impedance535.335736679005 0.0879761978140101 0                0                0                0                54.0050942434117 -0.0124859316451898 

70.5                           0.865037945153787 -0.260985197536349 -0.0716016991174232 0.057282700501587 -0.0716016991174248 0.0572827005015862 0.373538583310097 0.866329557307124 
! Gamma         0.290867880450923 1058.60146062683 0                0                0                0                2.92672826979492 2298.98049866597 
! Port Impedance534.61348734301  0.0872686586795396 0                0                0                0                54.0148576002748 -0.0124649798382642 

70.6                           0.830142420875448 -0.356393428197793 -0.0523622697459366 0.0145207163572103 -0.052362269745938 0.0145207163572093 0.428663703922031 0.839291299156601 
! Gamma         0.290435058014484 1061.52519747472 0                0                0                0                2.92995101157876 2302.3353599698  
! Port Impedance533.897201521533 0.0865695653542469 0                0                0                0                54.0246177993986 -0.0124440967657211 

70.7                           0.78050622921617 -0.448964970976418 -0.040618027372952 -0.0348270222965939 -0.0406180273729537 -0.0348270222965938 0.484011815467646 0.803923484506892 
! Gamma         0.290006112900212 1064.44503069417 0                0                0                0                2.9331731962674  2305.69044107583 
! Port Impedance533.186805882407 0.0858787792595153 0                0                0                0                54.0343748577579 -0.0124232822487401 

70.8                           0.715761769808515 -0.53553365071692 -0.0384681767712367 -0.0896048900080396 -0.0384681767712373 -0.0896048900080392 0.537872090849155 0.759440880137942 
! Gamma         0.289580999213097 1067.36099232034 0                0                0                0                2.93639482577734 2309.04574174427 
! Port Impedance532.482228310912 0.0851961647133532 0                0                0                0                54.0441287923038 -0.012402536108313 

70.9                           0.63641318899093 -0.61253347286678 -0.0478700225095596 -0.147922739153849 -0.0478700225095595 -0.147922739153848 0.588132934871891 0.705484411670548 
! Gamma         0.289159671801385 1070.27311399703 0                0                0                0                2.93961590202077 2312.40126173607 
! Port Impedance531.783397884198 0.0845215888568669 0                0                0                0                54.0538796199639 -0.012381858165248 

71                             0.544073960822799 -0.676291898635592 -0.070342832113977 -0.207139694240301 -0.0703428321139772 -0.207139694240301 0.632407022132247 0.642316691130323 
! Gamma         0.288742086241204 1073.18142698316 0                0                0                0                2.94283642690551 2315.75700081289 
! Port Impedance531.090244846361 0.0838549215829261 0                0                0                0                54.0636273576405 -0.0123612482401745 

71.1                           0.441584484543324 -0.723460369956049 -0.10663994213527 -0.263987766269662 -0.106639942135269 -0.263987766269662 0.668259746147493 0.570973812063522 
! Gamma         0.28832819882159 1076.085962159   0                0                0                0                2.94605640233508 2319.11295873716 
! Port Impedance530.402700584148 0.0831960354669499 0                0                0                0                54.0733720222105 -0.0123407061535477 

71.2                           0.332925625776183 -0.751521045451996 -0.156466883573593 -0.314860358811631 -0.156466883573592 -0.314860358811631 0.693521452066973 0.49331246392537 
! Gamma         0.287917966529866 1078.98675003248 0                0                0                0                2.94927583020861 2322.46913527198 
! Port Impedance529.720697603279 0.0825448056997373 0                0                0                0                54.0831136305246 -0.0123202317256529 

71.3                           0.222883565140976 -0.759253383399208 -0.21834005358536 -0.356239995374807 -0.218340053585359 -0.356239995374807 0.706623857525514 0.411903980840097 
! Gamma         0.287511347037406 1081.88382074513 0                0                0                0                2.95249471242097 2325.82553018124 
! Port Impedance529.044169505357 0.0819011100222766 0                0                0                0                54.0928521994065 -0.0122998247766104 

71.4                           0.116499132964905 -0.747020700075587 -0.289659173552534 -0.385179375469178 -0.289659173552533 -0.385179375469178 0.706872483459774 0.32976807257611 
! Gamma         0.28710829868574 1084.77720407811 0                0                0                0                2.95571305086283 2329.18214322952 
! Port Impedance528.373050965361 0.0812648286624633 0                0                0                0                54.1025877456521 -0.0122794851263798 

71.5                           0.0184208589586461 -0.716771848185729 -0.367004634154397 -0.399711696588722 -0.367004634154396 -0.399711696588722 0.694571103612954 0.249996027189651 
! Gamma         0.286708780473009 1087.66692945797 0                0                0                0                2.95893084742142 2332.53897418213 
! Port Impedance527.707277709693 0.080635844273665 0                0                0                0                54.112320286029  -0.0122592125947646 

71.6                           -0.067671562202607 -0.671742358424685 -0.446592420842575 -0.39907759781684 -0.446592420842575 -0.39907759781684 0.670957444699436 0.175357828873044 
! Gamma         0.286312752040744 1090.55302596237 0                0                0                0                2.96214810398759 2335.89602280509 
! Port Impedance527.046786494773 0.0800140418750701 0                0                0                0                54.1220498372758 -0.0122390070014168 

71.7                           -0.139428896993704 -0.61594133242738 -0.524765267192866 -0.383717385928698 -0.524765267192866 -0.383717385928698 0.637973166997516 0.107993883900481 
! Gamma         0.285920173660982 1093.43552232564 0                0                0                0                2.965364822574   2339.25328886535 
! Port Impedance526.391515086158 0.0793993087937603 0                0                0                0                54.1317764161013 -0.0122188681658415 

71.8                           -0.195915827239203 -0.553572371614154 -0.598397223447304 -0.355057146352409 -0.598397223447304 -0.35505714635241 0.597942661917709 0.0492562748020992 
! Gamma         0.285531006223688 1096.31444694426 0                0                0                0                2.96858100456458 2342.61077213003 
! Port Impedance525.741402238175 0.0787915346084513 0                0                0                0                54.141500039184  -0.0121987959074015 

71.9                           -0.237447848526016 -0.488532485934485 -0.665135457610289 -0.315175108834472 -0.665135457610289 -0.315175108834472 0.553250507423441 -0.000291711865888333 
! Gamma         0.285145211224518 1099.1898278822  0                0                0                0                2.97179665234566 2345.96847236756 
! Port Impedance525.096387674055 0.0781906110948452 0                0                0                0                54.1512207231712 -0.0121787900453217 

72                             -0.265275830014527 -0.424076972856649 -0.723467251664684 -0.266448202265847 -0.723467251664684 -0.266448202265847 0.506086568700401 -0.0407560305353509 
! Gamma         0.284762750758382 1102.06169287621 0                0                0                0                2.97501176760847 2349.32638934683 
! Port Impedance524.456412066542 0.0775964321725422 0                0                0                0                54.1609384846787 -0.0121588503986937 

72.1                           -0.281225008172968 -0.362668540813111 -0.772649814819293 -0.211254479710729 -0.772649814819293 -0.211254479710729 0.458289503952084 -0.0727309351577498 
! Gamma         0.284383587479672 1104.9300693409  0                0                0                0                2.97822635220886 2352.6845228375  
! Port Impedance523.821417018981 0.0770088938534596 0                0                0                0                54.17065334029   -0.0121389767864805 

72.2                           -0.28736979426574 -0.305977587184452 -0.81256115285333 -0.151767470432119 -0.81256115285333 -0.151767470432119 0.411284801822322 -0.0971101669929091 
! Gamma         0.284007684646839 1107.79498437385 0                0                0                0                2.98144040800128 2356.04287260989 
! Port Impedance523.191345046855 0.0764278941917109 0                0                0                0                54.1803653065554 -0.0121191690275209 

72.3                           -0.285786671514684 -0.254978947476462 -0.843525835862181 -0.0898439952385989 -0.843525835862181 -0.0898439952385989 0.366093591682174 -0.114925127657492 
! Gamma         0.283635006055964 1110.6564647605  0                0                0                0                2.98465393683595 2359.4014384351  
! Port Impedance522.566139559768 0.0758533332348951 0                0                0                0                54.190074399992  -0.0120994269405341 

72.4                           -0.278393782102822 -0.210092774044437 -0.866152575962841 -0.0269868774568952 -0.866152575962841 -0.0269868774568949 0.323383498840076 -0.127224911491979 
! Gamma         0.283265516056837 1113.51453697902 0                0                0                0                2.98786694055867 2362.7602200849  
! Port Impedance521.945744843861 0.0752851129767521 0                0                0                0                54.1997806370824 -0.0120797503441241 

72.5                           -0.266865396930919 -0.171331419507424 -0.881202230604624 0.0356423374261164 -0.881202230604624 0.0356423374261174 0.2835372203681  -0.134998565239855 
! Gamma         0.282899179537296 1116.36922720506 0                0                0                0                2.9910794210107  2366.11921733179 
! Port Impedance521.330106044644 0.0747231373111408 0                0                0                0                54.2094840342749 -0.0120601390567848 

72.6                           -0.252601505214571 -0.138430306716595 -0.889491072420178 0.0971831727212659 -0.889491072420178 0.0971831727212659 0.246722329506179 -0.139132300176231 
! Gamma         0.28253596191279 1119.22056131638 0                0                0                0                2.99429138002881 2369.47842994898 
! Port Impedance520.719169150236 0.0741673119872953 0                0                0                0                54.219184607982  -0.0120405928969035 

72.7                           -0.236732883021648 -0.110953552648335 -0.891826176355596 0.157025119188908 -0.891826176355596 0.157025119188908 0.212953241281977 -0.140392040557344 
! Gamma         0.282175829116249 1122.06856489745 0                0                0                0                2.99750281944523 2372.83785771039 
! Port Impedance520.112880974996 0.0736175445663206 0                0                0                0                54.2288823745806 -0.0120211116827666 

72.8                           -0.220145867263558 -0.08837324932557 -0.888966419285907 0.214756088307807 -0.888966419285907 0.214756088307807 0.182141709720881 -0.139422392618199 
! Gamma         0.281818747588193 1124.91326324392 0                0                0                0                3.00071374108765 2376.19750039063 
! Port Impedance519.511189143548 0.0730737443788869 0                0                0                0                54.2385773504109 -0.012001695232563 

72.9                           -0.203515780567493 -0.0701254889850602 -0.881602105165008 0.270115986156279 -0.881602105165008 0.270115986156279 0.154135539603934 -0.136755055282077 
! Gamma         0.281464684267081 1127.754681367   0                0                0                0                3.00392414677921 2379.55735776506 
! Port Impedance518.914042075177 0.0725358224840858 0                0                0                0                54.2482695517763 -0.0119823433643897 

73                             -0.187342081044445 -0.0556477482564764 -0.870347148322497 0.322957676250822 -0.870347148322497 0.322957676250822 0.128746861303189 -0.13282179056922 
! Gamma         0.281113606579877 1130.59284399777 0                0                0                0                3.00713403833849 2382.9174296097  
! Port Impedance518.321388968578 0.0720036916294106 0                0                0                0                54.2579589949424 -0.0119630558962553 

73.1                           -0.171981382349777 -0.0444022825649015 -0.855739123594571 0.373215647003545 -0.855739123594571 0.373215647003545 0.105771921452728 -0.127968839445363 
! Gamma         0.280765482432838 1133.4277755914  0                0                0                0                3.0103434175795  2386.27771570129 
! Port Impedance517.733179786977 0.071477266211826 0                0                0                0                54.2676456961368 -0.0119438326460851 

73.2                           -0.157676537819251 -0.0358895386809357 -0.838243830120532 0.420881700463597 -0.838243830120532 0.420881700463597 0.0850043601811219 -0.122470974419216 
! Gamma         0.280420280202505 1136.25950033131 0                0                0                0                3.0135522863117  2389.63821581728 
! Port Impedance517.149365243583 0.0709564622398935 0                0                0                0                54.2773296715483 -0.0119246734317256 

73.3                           -0.144581228521805 -0.0296547477126993 -0.818262116086591 0.465986577523166 -0.818262116086592 0.465986577523166 0.0662436946206415 -0.116544260872929 
! Gamma         0.280077968726913 1139.08804213322 0                0                0                0                3.01676064633993 2392.99892973581 
! Port Impedance516.569896787379 0.0704411972969186 0                0                0                0                54.2870109373266 -0.0119055780709485 

73.4                           -0.13278018254236 -0.0252900524277301 -0.796137534617569 0.508586368400747 -0.79613753461757 0.508586368400747 0.049300392786698 -0.110357150270598 
! Gamma         0.279738517296989 1141.91342464915 0                0                0                0                3.01996849946447 2396.35985723573 
! Port Impedance515.994726589238 0.0699313905050895 0                0                0                0                54.2966895095817 -0.0118865463814558 

73.5                           -0.122305483363601 -0.0224338473031668 -0.772163977871003 0.548752655475265 -0.772163977871003 0.548752655475265 0.0339985951080469 -0.104039848280191 
! Gamma         0.279401895648153 1144.73567127133 0                0                0                0                3.02317584748097 2399.72099809657 
! Port Impedance515.423807528361 0.0694269624905754 0                0                0                0                54.3063654043833 -0.0118675781808843 

73.6                           -0.113149544262477 -0.0207684867794124 -0.746592820892252 0.586565497909019 -0.746592820892252 0.586565497909019 0.0201772618100191 -0.0976920696223869 
! Gamma         0.279068073952102 1147.55480513602 0                0                0                0                3.02638269218049 2403.08235209856 
! Port Impedance514.857093179014 0.0689278353495552 0                0                0                0                54.3160386377604 -0.0118486732868112 

73.7                           -0.105275329215305 -0.0200171321623376 -0.719639351824032 0.622108540107226 -0.719639351824032 0.622108540107226 0.00769030279615842 -0.0913893673108761 
! Gamma         0.278737022808788 1150.3708491273  0                0                0                0                3.02958903534947 2406.44391902265 
! Port Impedance514.294537797576 0.0684339326151493 0                0                0                0                54.3257092257008 -0.0118298315167649 

73.8                           -0.0986243482069715 -0.0199402342324789 -0.691488414106256 0.655465683455596 -0.691488414106256 0.655465683455596 -0.00359392121723448 -0.0851882460631406 
! Gamma         0.278408713238564 1153.18382588078 0                0                0                0                3.03279487876973 2409.80569865044 
! Port Impedance513.736096309868 0.0679451792252251 0                0                0                0                54.3353771841504 -0.0118110526882812 

73.9                           -0.0931228804594006 -0.0203319600138968 -0.662299271910354 0.686718893455647 -0.662299271910354 0.686718893455647 -0.013793460720214 -0.0791302629910344 
! Gamma         0.278083116674514 1155.99375778719 0                0                0                0                3.03600022421845 2413.16769076425 
! Port Impedance513.18172429878  0.0674615014910512 0                0                0                0                54.3450425290118 -0.0117923366201881 

74                             -0.0886868015305416 -0.0210167452681035 -0.632209755218513 0.715946821071953 -0.632209755218512 0.715946821071953 -0.0230138251688989 -0.073245298350068 
! Gamma         0.27776020495495 1158.80066699597 0                0                0                0                3.03920507346816 2416.52989514709 
! Port Impedance512.631377992161 0.0669828270667732 0                0                0                0                54.3547052761568 -0.0117736831272799 

74.1                           -0.0852253185904331 -0.0218460709760019 -0.601339761258455 0.743224000298046 -0.601339761258455 0.743224000298046 -0.0313491009879817 -0.0675541538467197 
! Gamma         0.277439950316075 1161.60457541878 0                0                0                0                3.04240942828678 2419.89231158264 
! Port Impedance512.085014250991 0.0665090849196884 0                0                0                0                54.3643654413867 -0.0117550920258281 

74.2                           -0.0826438561411879 -0.0226955088280417 -0.569794194649272 0.768620447445648 -0.569794194649272 0.768620447445648 -0.0388830670602614 -0.0620706104848449 
! Gamma         0.277122325384808 1164.40550473288 0                0                0                0                3.04561329043753 2423.25493985527 
! Port Impedance511.542590557808 0.066040205301293 0                0                0                0                54.3740230404853 -0.0117365631367047 

74.3                           -0.0808462827929899 -0.0234620478207961 -0.537665426107418 0.792201535388918 -0.537665426107418 0.792201535388918 -0.0456902639799372 -0.0568030544887275 
! Gamma         0.276807303171768 1167.20347638457 0                0                0                0                3.04881666167901 2426.61777975004 
! Port Impedance511.004065005391 0.0655761197190808 0                0                0                0                54.3836780891824 -0.0117180962759191 

74.4                           -0.0797366277909138 -0.0240616946192556 -0.505035342929483 0.814028051459807 -0.505035342929482 0.814028051459806 -0.0518369927337188 -0.0517557594079707 
! Gamma         0.276494857064407 1169.99851159245 0                0                0                0                3.05201954376512 2429.9808310527  
! Port Impedance510.4693962857   0.0651167609090693 0                0                0                0                54.3933306031643 -0.0116996912606017 

74.5                           -0.079220402566102 -0.0244273296798555 -0.471977056120958 0.834156373810229 -0.471977056120958 0.834156373810228 -0.0573822311664882 -0.0469298952754928 
! Gamma         0.276184960820297 1172.79063135066 0                0                0                0                3.05522193844511 2433.34409354966 
! Port Impedance509.93854367905  0.0646620628090334 0                0                0                0                54.402980598072  -0.0116813479079494 

74.6                           -0.0792056162676626 -0.0245067960490098 -0.438556320363512 0.852638720155446 -0.438556320363512 0.852638720155445 -0.0623784646906736 -0.042324321464766 
! Gamma         0.275877588560561 1175.57985643214 0                0                0                0                3.05842384746353 2436.70756702803 
! Port Impedance509.411467043525 0.0642119605324246 0                0                0                0                54.4126280895019 -0.0116630660351584 

74.7                           -0.0796035536950045 -0.0242611961245642 -0.404832714753193 0.869523436691934 -0.404832714753192 0.869523436691933 -0.0668724326917462 -0.0379362083230654 
! Gamma         0.275572714763446 1178.36620739167 0                0                0                0                3.06162527256026 2440.07125127557 
! Port Impedance508.888126804623 0.0637663903429554 0                0                0                0                54.4222730930042 -0.0116448454594171 

74.8                           -0.0803293681315999 -0.0236633720898525 -0.370860624759946 0.884855305010123 -0.370860624759946 0.884855305010122 -0.0709057949967629 -0.0337615233446018 
! Gamma         0.275270314258033 1181.14970456903 0                0                0                0                3.06482621547047 2443.43514608074 
! Port Impedance508.368483945126 0.0633252896298307 0                0                0                0                54.4319156240832 -0.0116266859979067 

74.9                           -0.081302529304642 -0.0226965472922069 -0.336690059287005 0.898675852025071 -0.336690059287004 0.89867585202507 -0.074515724319354 -0.0297954102047336 
! Gamma         0.274970362218081 1183.93036809197 0                0                0                0                3.06802667792463 2446.79925123267 
! Port Impedance507.852499995188 0.0628885968836058 0                0                0                0                54.4415556981968 -0.0116085874678047 

75                             -0.0824471572651928 -0.0213531079611527 -0.302367331054513 0.911023653089155 -0.302367331054513 0.911023653089155 -0.077735431258356 -0.0260324830585148 
! Gamma         0.274672834156011 1186.7082178792  0                0                0                0                3.07122666164852 2450.16356652115 
! Port Impedance507.340137022633 0.0624562516726528 0                0                0                0                54.4511933307558 -0.0115905496862885 

75.1                           -0.0836922657635965 -0.0196335069869212 -0.267935623734271 0.921934622093139 -0.267935623734271 0.921934622093138 -0.0805946285371087 -0.0224670538175241 
! Gamma         0.274377705917002 1189.48327364329 0                0                0                0                3.0744261683632  2453.52809173664 
! Port Impedance506.83135762347  0.0620281946202185 0                0                0                0                54.4608285371239 -0.0115725724705395 

75.2                           -0.0849719331824327 -0.0175452737922352 -0.23343546523211 0.931442284919111 -0.23343546523211 0.93144228491911 -0.0831199409465514 -0.0190933064118952 
! Gamma         0.274084953673228 1192.25555489357 0                0                0                0                3.07762519978501 2456.89282667027 
! Port Impedance506.326124912599 0.0616043673820536 0                0                0                0                54.4704613326171 -0.0115546556377472 

75.3                           -0.0862254148905585 -0.0151021165078481 -0.198905123151531 0.939578034382845 -0.198905123151531 0.939578034382844 -0.0853352670434164 -0.0159054291181955 
! Gamma         0.27379455391821 1195.02508093891 0                0                0                0                3.08082375762556 2460.25777111386 
! Port Impedance505.824402514726 0.0611847126245978 0                0                0                0                54.4800917325034 -0.0115367990051135 

75.4                           -0.0873972076906812 -0.0123231046427538 -0.164380935679646 0.946371366014527 -0.164380935679646 0.946371366014526 -0.0872620981500575 -0.0128977137257952 
! Gamma         0.273506483461279 1197.79187089048 0                0                0                0                3.08402184359175 2463.62292485985 
! Port Impedance505.326154555463 0.0607691740037034 0                0                0                0                54.4897197520023 -0.0115190023898566 

75.5                           -0.0884370746122704 -0.00923192219840838 -0.129897588825543 0.951850094835713 -0.129897588825543 0.951850094835712 -0.0889197996653121 -0.0100646284945969 
! Gamma         0.273220719422173 1200.5559436645  0                0                0                0                3.08721945938573 2466.98828770138 
! Port Impedance504.831345652616 0.0603576961438831 0                0                0                0                54.4993454062847 -0.0115012656092151 

75.6                           -0.0893000364683793 -0.00585618271028266 -0.0954883490320397 0.956040553813149 -0.09548834903204 0.956040553813149 -0.0903258591637442 -0.00740087042196211 
! Gamma         0.272937239225728 1203.3173179849  0                0                0                0                3.09041660670492 2470.35385943223 
! Port Impedance504.339940907663 0.0599502246180729 0                0                0                0                54.5089687104725 -0.0114835884804523 

75.7                           -0.0899463352079899 -0.00222679902029717 -0.0611852586075902 0.958967774990492 -0.0611852586075905 0.958967774990491 -0.091496105255585 -0.00490140120463111 
! Gamma         0.272656020596693 1206.07601238594 0                0                0                0                3.093613287242   2473.71963984683 
! Port Impedance503.851905897403 0.0595467059279015 0                0                0                0                54.5185896796378 -0.0114659708208604 

75.8                           -0.0903413730464322 0.00162259829197878 -0.0270193001270811 0.960655654478201 -0.0270193001270813 0.9606556544782  -0.092444900713638 -0.00256147038756275 