! Touchstone file exported from HFSS 2020.1.3
!        File:           /home/erdoel/scratch/P2S30/WR12_SIW_MS_Transition.aedt
!        Generated:      12:27:00 PM  Feb 07, 2021
!        Design:         Design1_Al
!        Project:        WR12_SIW_MS_Transition
!        Setup:          Setup1
!        Solution:       Sweep
!
! Variables:
!        T_L2 = 35um
!        fil = 0.3mm
!        hm = 0.4mm
!        hsub = 0.127mm
!        hwg = 1.55mm
!        l1 = 1.05mm
!        lcav = 1.92mm
!        lt = 0.7mm
!        offx = 0um
!        offy = 0um
!        rvia = 0.075mm
!        s1 = 1.33mm
!        shift = 20um
!        sl = 3.1mm
!        sy = 0.65mm
!        th = 35um
!        w1 = 1.2mm
!        w50 = 300um
!        wcav = 3.5mm
!        wm = 1.9mm
!        wslot = 1.5mm
!        wt = 0.6mm
!        wwg = 3.1mm
!
!Data is not renormalized
# GHZ S DB
! Terminal data exported
! Port[1] = MS
! Port[2] = WG
70                             -1.105774557891  12.2152277919063 -11.2058016023523 142.425504380495 -11.2058016023523 142.425504380495 -0.696391356536614 81.7053190488861 
! Gamma         0.293091812840837 1043.92307249166 0                0                0                0                2.91060613706894 2282.20949762374 
! Port Impedance538.285879911284 0.0908936897092764 0                0                0                0                53.9660088982981 -0.0125704297862929 

70.1                           -1.04321978100799 6.8082648462973  -12.2239154348768 139.703653595321 -12.2239154348768 139.703653595321 -0.640304421451979 79.1343824707612 
! Gamma         0.292638888227222 1046.86682217655 0                0                0                0                2.91383169322685 2285.56325629407 
! Port Impedance537.539017913422 0.0901509209163966 0                0                0                0                53.9757850563054 -0.0125492012575511 

70.2                           -0.986226574224192 1.21728406252367 -13.5100780555934 137.340405897682 -13.5100780555935 137.340405897682 -0.589878382279697 76.3622383869205 
! Gamma         0.29219008212624 1049.80650195091 0                0                0                0                2.91705668264259 2288.91723597655 
! Port Impedance536.79842546859  0.089417182765232 0                0                0                0                53.9855579884566 -0.0125280421765032 

70.3                           -0.937671825065382 -4.57125302792264 -15.1862787913637 135.763594889234 -15.1862787913638 135.763594889235 -0.548078054656453 73.3720621099026 
! Gamma         0.291745344681655 1052.74214590853 0                0                0                0                2.9202811072541  2292.27143642772 
! Port Impedance536.064024105371 0.0886923243087005 0                0                0                0                53.995327711812  -0.0125069523651259 

70.4                           -0.901130283009125 -10.5698364023396 -17.4682605352018 136.024689357704 -17.4682605352018 136.024689357705 -0.518573956816541 70.1478533329166 
! Gamma         0.291304626863566 1055.67378771737 0                0                0                0                2.92350496899508 2295.62585740486 
! Port Impedance535.335736679005 0.0879761978140101 0                0                0                0                54.0050942434117 -0.0124859316451898 

70.5                           -0.8809491872561 -16.7887600333634 -20.7530155876983 141.339537339553 -20.7530155876982 141.339537339554 -0.505817040971162 66.6755616729293 
! Gamma         0.290867880450923 1058.60146062683 0                0                0                0                2.92672826979492 2298.98049866597 
! Port Impedance534.61348734301  0.0872686586795396 0                0                0                0                54.0148576002748 -0.0124649798382642 

70.6                           -0.882285705323381 -23.2346220866331 -25.2978678048972 164.500636293736 -25.297867804897 164.500636293737 -0.515075891222855 62.9445611203188 
! Gamma         0.290435058014484 1061.52519747472 0                0                0                0                2.92995101157876 2302.3353599698  
! Port Impedance533.897201521533 0.0865695653542469 0                0                0                0                54.0246177993986 -0.0124440967657211 

70.7                           -0.911079436369734 -29.9084941069478 -25.4321723965496 -139.389298097136 -25.4321723965494 -139.389298097137 -0.552408460683277 58.9494501696603 
! Gamma         0.290006112900212 1064.44503069417 0                0                0                0                2.9331731962674  2305.69044107583 
! Port Impedance533.186805882407 0.0858787792595153 0                0                0                0                54.0343748577579 -0.0124232822487401 

70.8                           -0.973927812264146 -36.8038715036131 -20.2187260004837 -113.234278328893 -20.2187260004837 -113.234278328894 -0.62453605690114 54.6920621931866 
! Gamma         0.289580999213097 1067.36099232034 0                0                0                0                2.93639482577734 2309.04574174427 
! Port Impedance532.482228310912 0.0851961647133532 0                0                0                0                54.0441287923038 -0.012402536108313 

70.9                           -1.07783476502999 -43.9046447673944 -16.1667527235341 -107.932360690439 -16.1667527235342 -107.932360690439 -0.738589994236762 50.1834422934952 
! Gamma         0.289159671801385 1070.27311399703 0                0                0                0                2.93961590202077 2312.40126173607 
! Port Impedance531.783397884198 0.0845215888568669 0                0                0                0                54.0538796199639 -0.012381858165248 

71                             -1.22981758666958 -51.1834701519046 -13.2007297928161 -108.757038830957 -13.2007297928161 -108.757038830958 -0.901716201714829 45.4454069274451 
! Gamma         0.288742086241204 1073.18142698316 0                0                0                0                2.94283642690551 2315.75700081289 
! Port Impedance531.090244846361 0.0838549215829261 0                0                0                0                54.0636273576405 -0.0123612482401745 

71.1                           -1.43638655348575 -58.601016162643 -10.91184731943  -111.996634210173 -10.91184731943  -111.996634210173 -1.12055311958442 40.5112056938458 
! Gamma         0.28832819882159 1076.085962159   0                0                0                0                2.94605640233508 2319.11295873716 
! Port Impedance530.402700584148 0.0831960354669499 0                0                0                0                54.0733720222105 -0.0123407061535477 

71.2                           -1.7029534672354 -66.106542515898 -9.07915015583597 -116.424645312004 -9.07915015583597 -116.424645312004 -1.40064011734542 35.4248269751667 
! Gamma         0.287917966529866 1078.98675003248 0                0                0                0                2.94927583020861 2322.46913527198 
! Port Impedance529.720697603279 0.0825448056997373 0                0                0                0                54.0831136305246 -0.0123202317256529 

71.3                           -2.03326620222033 -73.6400696397709 -7.5800721910728 -121.504197886222 -7.58007219107281 -121.504197886221 -1.74585460030714 30.2386918087484 
! Gamma         0.287511347037406 1081.88382074513 0                0                0                0                2.95249471242097 2325.82553018124 
! Port Impedance529.044169505357 0.0819011100222766 0                0                0                0                54.0928521994065 -0.0122998247766104 

71.4                           -2.42898682036541 -81.1360267489706 -6.34015129420597 -126.94357284462 -6.34015129420597 -126.94357284462 -2.15799595074591 25.0098541491098 
! Gamma         0.28710829868574 1084.77720407811 0                0                0                0                2.95571305086283 2329.18214322952 
! Port Impedance528.373050965361 0.0812648286624633 0                0                0                0                54.1025877456521 -0.0122794851263798 

71.5                           -2.88951373631815 -88.5278367113703 -5.30970975696483 -132.557321953165 -5.30970975696482 -132.557321953165 -2.63661648001745 19.7952563342214 
! Gamma         0.286708780473009 1087.66692945797 0                0                0                0                2.95893084742142 2332.53897418213 
! Port Impedance527.707277709693 0.080635844273665 0                0                0                0                54.112320286029  -0.0122592125947646 

71.6                           -3.41209256281222 -95.7525891534119 -4.45259277153952 -138.215840016557 -4.45259277153952 -138.215840016557 -3.17914283599186 14.6468917747514 
! Gamma         0.286312752040744 1090.55302596237 0                0                0                0                2.96214810398759 2335.89602280509 
! Port Impedance527.046786494773 0.0800140418750701 0                0                0                0                54.1220498372758 -0.0122390070014168 

71.7                           -3.99218560103718 -102.75492023138 -3.74052402209887 -143.825086723273 -3.74052402209888 -143.825086723272 -3.78125625724422 9.60775303299512 
! Gamma         0.285920173660982 1093.43552232564 0                0                0                0                2.965364822574   2339.25328886535 
! Port Impedance526.391515086158 0.0793993087937603 0                0                0                0                54.1317764161013 -0.0122188681658415 

71.8                           -4.62400774033555 -109.489475233564 -3.1502471562123 -149.317355823165 -3.1502471562123 -149.317355823165 -4.43743817340857 4.70917879966206 
! Gamma         0.285531006223688 1096.31444694426 0                0                0                0                2.96858100456458 2342.61077213003 
! Port Impedance525.741402238175 0.0787915346084513 0                0                0                0                54.141500039184  -0.0121987959074015 

71.9                           -5.30111048084548 -115.921749925989 -2.66208674757301 -154.646019002287 -2.66208674757301 -154.646019002287 -5.14156237420046 -0.0302102880632475 
! Gamma         0.285145211224518 1099.1898278822  0                0                0                0                2.97179665234566 2345.96847236756 
! Port Impedance525.096387674055 0.0781906110948452 0                0                0                0                54.1512207231712 -0.0121787900453217 

72                             -6.01690919890277 -122.027502337844 -2.2592155819673 -159.781581497085 -2.2592155819673 -159.781581497085 -5.88742914552825 -4.60419252883123 
! Gamma         0.284762750758382 1102.06169287621 0                0                0                0                2.97501176760847 2349.32638934683 
! Port Impedance524.456412066542 0.0775964321725422 0                0                0                0                54.1609384846787 -0.0121588503986937 

72.1                           -6.76508689642625 -127.791166225205 -1.92724684925047 -164.708182084117 -1.92724684925047 -164.708182084117 -6.66917528119164 -9.01768458990696 
! Gamma         0.284383587479672 1104.9300693409  0                0                0                0                2.97822635220886 2352.6845228375  
! Port Impedance523.821417018981 0.0770088938534596 0                0                0                0                54.17065334029   -0.0121389767864805 

72.2                           -7.53985019422996 -133.203752602546 -1.65395575709279 -169.420385914435 -1.65395575709279 -169.420385914435 -7.48153629047732 -13.2850321454788 
! Gamma         0.284007684646839 1107.79498437385 0                0                0                0                2.98144040800128 2356.04287260989 
! Port Impedance523.191345046855 0.0764278941917109 0                0                0                0                54.1803653065554 -0.0121191690275209 

72.3                           -8.3360456812692 -138.260648468878 -1.42904150404351 -173.92034342297 -1.42904150404352 -173.92034342297 -8.3199689512668 -17.4282625776882 
! Gamma         0.283635006055964 1110.6564647605  0                0                0                0                2.98465393683595 2359.4014384351  
! Port Impedance522.566139559768 0.0758533332348951 0                0                0                0                54.190074399992  -0.0120994269405341 

72.4                           -9.14916192234531 -142.959589237759 -1.24389801676952 -178.215402033565 -1.24389801676952 -178.215402033565 -9.18065871462265 -21.4755726881917 
! Gamma         0.283265516056837 1113.51453697902 0                0                0                0                2.98786694055867 2362.7602200849  
! Port Impedance521.945744843861 0.0752851129767521 0                0                0                0                54.1997806370824 -0.0120797503441241 

72.5                           -9.97524660507325 -147.298954060771 -1.09138902614649 177.683797342476 -1.09138902614649 177.683797342476 -10.0604395046447 -25.4601890957968 
! Gamma         0.282899179537296 1116.36922720506 0                0                0                0                2.9910794210107  2366.11921733179 
! Port Impedance521.330106044644 0.0747231373111408 0                0                0                0                54.2094840342749 -0.0120601390567848 

72.6                           -10.8107644843733 -151.276442025944 -0.965632929439427 173.764763748254 -0.965632929439427 173.764763748254 -10.9566480559445 -29.4196341666573 
! Gamma         0.28253596191279 1119.22056131638 0                0                0                0                2.99429138002881 2369.47842994898 
! Port Impedance520.719169150236 0.0741673119872953 0                0                0                0                54.219184607982  -0.0120405928969035 

72.7                           -11.6524147447099 -154.888138871871 -0.861804187329117 170.014200526506 -0.861804187329122 170.014200526506 -11.866925628315 -33.3953585060329 
! Gamma         0.282175829116249 1122.06856489745 0                0                0                0                2.99750281944523 2372.83785771039 
! Port Impedance520.112880974996 0.0736175445663206 0                0                0                0                54.2288823745806 -0.0120211116827666 

72.8                           -12.49691950825  -158.127972463573 -0.775955964439388 166.418726047269 -0.775955964439388 166.418726047269 -12.7889697928283 -37.4326505657235 
! Gamma         0.281818747588193 1124.91326324392 0                0                0                0                3.00071374108765 2376.19750039063 
! Port Impedance519.511189143548 0.0730737443788869 0                0                0                0                54.2385773504109 -0.012001695232563 

72.9                           -13.340790496732 -160.987571004285 -0.704866036392077 162.965345450501 -0.704866036392077 162.965345450501 -13.7202297931633 -41.5806873047145 
! Gamma         0.281464684267081 1127.754681367   0                0                0                0                3.00392414677921 2379.55735776506 
! Port Impedance518.914042075177 0.0725358224840858 0                0                0                0                54.2482695517763 -0.0119823433643897 

73                             -14.1800795800817 -163.456570988077 -0.645905777153408 159.641738869776 -0.645905777153408 159.641738869776 -14.6575321736697 -45.8925280673062 
! Gamma         0.281113606579877 1130.59284399777 0                0                0                0                3.00713403833849 2382.9174296097  
! Port Impedance518.321388968578 0.0720036916294106 0                0                0                0                54.2579589949424 -0.0119630558962553 

73.1                           -15.0101221906479 -165.523462102478 -0.596930594983585 156.436419357889 -0.596930594983582 156.436419357889 -15.5966211942112 -50.4247586661295 
! Gamma         0.280765482432838 1133.4277755914  0                0                0                0                3.0103434175795  2386.27771570129 
! Port Impedance517.733179786977 0.071477266211826 0                0                0                0                54.2676456961368 -0.0119438326460851 

73.2                           -15.8252914440631 -167.177089970288 -0.556189426739392 153.338801540802 -0.556189426739392 153.338801540802 -16.5316055914003 -55.2363512073974 
! Gamma         0.280420280202505 1136.25950033131 0                0                0                0                3.0135522863117  2389.63821581728 
! Port Impedance517.149365243583 0.0709564622398935 0                0                0                0                54.2773296715483 -0.0119246734317256 

73.3                           -16.6187960298285 -168.408942707833 -0.522250640528803 150.339211390575 -0.522250640528796 150.339211390575 -17.4543278681844 -60.3861235330757 
! Gamma         0.280077968726913 1139.08804213322 0                0                0                0                3.01676064633993 2392.99892973581 
! Port Impedance516.569896787379 0.0704411972969186 0                0                0                0                54.2870109373266 -0.0119055780709485 

73.4                           -17.3825756308405 -169.216289639444 -0.493941750826128 147.428858921473 -0.493941750826119 147.428858921473 -18.3537269304184 -65.9280165575704 
! Gamma         0.279738517296989 1141.91342464915 0                0                0                0                3.01996849946447 2396.35985723573 
! Port Impedance515.994726589238 0.0699313905050895 0                0                0                0                54.2966895095817 -0.0118865463814558 

73.5                           -18.1073689365128 -169.606077250978 -0.470300575164751 144.599789026183 -0.470300575164751 144.599789026183 -19.2153613108128 -71.9034177791023 
! Gamma         0.279401895648153 1144.73567127133 0                0                0                0                3.02317584748097 2399.72099809657 
! Port Impedance515.423807528361 0.0694269624905754 0                0                0                0                54.3063654043833 -0.0118675781808843 

73.6                           -18.783039665993 -169.599187143192 -0.450535760631523 141.844820796194 -0.450535760631523 141.844820796194 -20.0213928081147 -78.3302552971993 
! Gamma         0.279068073952102 1147.55480513602 0                0                0                0                3.02638269218049 2403.08235209856 
! Port Impedance514.857093179014 0.0689278353495552 0                0                0                0                54.3160386377604 -0.0118486732868112 

73.7                           -19.3992268003574 -169.234248604645 -0.433994922395082 139.157482164512 -0.433994922395082 139.157482164512 -20.7514424946579 -85.1899626189821 
! Gamma         0.278737022808788 1150.3708491273  0                0                0                0                3.02958903534947 2406.44391902265 
! Port Impedance514.294537797576 0.0684339326151493 0                0                0                0                54.3257092257008 -0.0118298315167649 

73.8                           -19.9463177722082 -168.56981437332 -0.420138932875488 136.531944242928 -0.420138932875488 136.531944242928 -21.3846836474977 -92.4157614718738 
! Gamma         0.278408713238564 1153.18382588078 0                0                0                0                3.03279487876973 2409.80569865044 
! Port Impedance513.736096309868 0.0679451792252251 0                0                0                0                54.3353771841504 -0.0118110526882812 

73.9                           -20.4166266529956 -167.683620740123 -0.408521163608642 133.962958026088 -0.408521163608639 133.962958026088 -21.9031519427345 -99.8880676080497 
! Gamma         0.278083116674514 1155.99375778719 0                0                0                0                3.03600022421845 2413.16769076425 
! Port Impedance513.18172429878  0.0674615014910512 0                0                0                0                54.3450425290118 -0.0117923366201881 

74                             -20.8055305279376 -166.668142564711 -0.39877070740301 131.445794985093 -0.398770707403012 131.445794985093 -22.2955230007979 -107.442827254079 
! Gamma         0.27776020495495 1158.80066699597 0                0                0                0                3.03920507346816 2416.52989514709 
! Port Impedance512.631377992161 0.0669828270667732 0                0                0                0                54.3547052761568 -0.0117736831272799 

74.1                           -21.1122505200175 -165.622752961383 -0.390578796736301 128.976192312266 -0.390578796736305 128.976192312266 -22.5599430693069 -114.894073210225 
! Gamma         0.277439950316075 1161.60457541878 0                0                0                0                3.04240942828678 2419.89231158264 
! Port Impedance512.085014250991 0.0665090849196884 0                0                0                0                54.3643654413867 -0.0117550920258281 

74.2                           -21.34002696351  -164.644087071437 -0.383687788986478 126.550303087097 -0.383687788986481 126.550303087097 -22.7045831634852 -122.064379136141 
! Gamma         0.277122325384808 1164.40550473288 0                0                0                0                3.04561329043753 2423.25493985527 
! Port Impedance511.542590557808 0.066040205301293 0                0                0                0                54.3740230404853 -0.0117365631367047 

74.3                           -21.4956274630038 -163.816972920632 -0.377882214589431 124.164651326277 -0.377882214589431 124.164651326277 -22.7456314921727 -128.811904966678 
! Gamma         0.276807303171768 1167.20347638457 0                0                0                0                3.04881666167901 2426.61777975004 
! Port Impedance511.004065005391 0.0655761197190808 0                0                0                0                54.3836780891824 -0.0117180962759191 

74.4                           -21.5883488167042 -163.208042794392 -0.37298148524671 121.816091697929 -0.372981485246715 121.816091697929 -22.7037098642373 -135.044929067632 
! Gamma         0.276494857064407 1169.99851159245 0                0                0                0                3.05201954376512 2429.9808310527  
! Port Impedance510.4693962857   0.0651167609090693 0                0                0                0                54.3933306031643 -0.0116996912606017 

74.5                           -21.6288104170642 -162.863039358664 -0.368833940204845 119.50177357984  -0.368833940204854 119.50177357984  -22.6002159228652 -140.722080449582 
! Gamma         0.276184960820297 1172.79063135066 0                0                0                0                3.05522193844511 2433.34409354966 
! Port Impedance509.93854367905  0.0646620628090334 0                0                0                0                54.402980598072  -0.0116813479079494 

74.6                           -21.6278335189186 -162.807550737239 -0.365311973183993 117.219109094998 -0.365311973184003 117.219109094998 -22.4546658994082 -145.842772440369 
! Gamma         0.275877588560561 1175.57985643214 0                0                0                0                3.05842384746353 2436.70756702803 
! Port Impedance509.411467043525 0.0642119605324246 0                0                0                0                54.4126280895019 -0.0116630660351584 

74.7                           -21.5955943944829 -163.05007405358 -0.362308033946719 114.96574474522  -0.362308033946723 114.96574474522  -22.2833329838857 -150.434096759727 
! Gamma         0.275572714763446 1178.36620739167 0                0                0                0                3.06162527256026 2440.07125127557 
! Port Impedance508.888126804623 0.0637663903429554 0                0                0                0                54.4222730930042 -0.0116448454594171 

74.8                           -21.5411086512056 -163.586115891112 -0.359731339408356 112.739536272084 -0.359731339408359 112.739536272084 -22.0989279782815 -154.538723884695 
! Gamma         0.275270314258033 1181.14970456903 0                0                0                0                3.06482621547047 2443.43514608074 
! Port Impedance508.368483945126 0.0633252896298307 0                0                0                0                54.4319156240832 -0.0116266859979067 

74.9                           -21.4720083608474 -164.40230568122 -0.357505161745234 110.53852639485  -0.357505161745244 110.53852639485  -21.9108988025624 -158.205802392689 
! Gamma         0.274970362218081 1183.93036809197 0                0                0                0                3.06802667792463 2446.79925123267 
! Port Impedance507.852499995188 0.0628885968836058 0                0                0                0                54.4415556981968 -0.0116085874678047 

75                             -21.3945304557954 -165.479924329419 -0.355564586874892 108.360925101826 -0.355564586874897 108.360925101826 -21.7259922576842 -161.485039669798 
! Gamma         0.274672834156011 1186.7082178792  0                0                0                0                3.07122666164852 2450.16356652115 
! Port Impedance507.340137022633 0.0624562516726528 0                0                0                0                54.4511933307558 -0.0115905496862885 

75.1                           -21.3136320471171 -166.79762291659 -0.353854657344989 106.205092201016 -0.353854657344996 106.205092201016 -21.5488566455283 -164.423329739558 
! Gamma         0.274377705917002 1189.48327364329 0                0                0                0                3.0744261683632  2453.52809173664 
! Port Impedance506.83135762347  0.0620281946202185 0                0                0                0                54.4608285371239 -0.0115725724705395 

75.2                           -21.2331657849012 -168.333345681923 -0.352328830160891 104.069521865568 -0.352328830160898 104.069521865568 -21.3825781474133 -167.063132178956 
! Gamma         0.274084953673228 1192.25555489357 0                0                0                0                3.07762519978501 2456.89282667027 
! Port Impedance506.326124912599 0.0616043673820536 0                0                0                0                54.4704613326171 -0.0115546556377472 

75.3                           -21.1560706315678 -170.065586510716 -0.350947693273825 101.952828938113 -0.350947693273833 101.952828938113 -21.229115285728 -169.441932539499 
! Gamma         0.27379455391821 1195.02508093891 0                0                0                0                3.08082375762556 2460.25777111386 
! Port Impedance505.824402514726 0.0611847126245978 0                0                0                0                54.4800917325034 -0.0115367990051135 

75.4                           -21.0845524913123 -171.974139744039 -0.349677895023672 99.8537367847507 -0.349677895023682 99.8537367847507 -21.089632008775 -171.592309624702 
! Gamma         0.273506483461279 1197.79187089048 0                0                0                0                3.08402184359175 2463.62292485985 
! Port Impedance505.326154555463 0.0607691740037034 0                0                0                0                54.4897197520023 -0.0115190023898566 

75.5                           -21.0202426330407 -174.040493930168 -0.348491249321306 97.7710665139683 -0.348491249321315 97.7710665139684 -20.9647444309125 -173.54230582979 
! Gamma         0.273220719422173 1200.5559436645  0                0                0                0                3.08721945938573 2466.98828770138 
! Port Impedance504.831345652616 0.0603576961438831 0                0                0                0                54.4993454062847 -0.0115012656092151 

75.6                           -20.9643301857362 -176.24798815997 -0.347363986190985 95.7037273977535 -0.347363986190989 95.7037273977535 -20.8546995573421 -175.315920195845 
! Gamma         0.272937239225728 1203.3173179849  0                0                0                0                3.09041660670492 2470.35385943223 
! Port Impedance504.339940907663 0.0599502246180729 0                0                0                0                54.5089687104725 -0.0114835884804523 

75.7                           -20.9176695297889 -178.581819606246 -0.346276122810576 93.6507083519795 -0.346276122810584 93.6507083519795 -20.7595027799943 -176.933624310682 
! Gamma         0.272656020596693 1206.07601238594 0                0                0                0                3.093613287242   2473.71963984683 
! Port Impedance503.851905897403 0.0595467059279015 0                0                0                0                54.5185896796378 -0.0114659708208604 

75.8                           -20.8808655052573 178.971035794849 -0.345210934649099 91.6110703505927 -0.345210934649108 91.6110703505927 -20.6790078305909 -178.412850242406 
! Gamma         0.272377041554641 1208.83204521475 0                0                0                0                3.09680950268488 2477.0856287403  
! Port Impedance503.367206665786 0.0591470874844548 0                0                0                0                54.5282083288034 -0.0114484124477641 

75.9                           -20.8543400347794 176.42194816635  -0.344154509921489 89.5839396635872 -0.344154509921497 89.5839396635872 -20.6129796950621 -179.768428044608 