! Touchstone file exported from HFSS 2020.1.3
!        File:           /home/erdoel/scratch/P2S30/WR12_SIW_MS_Transition.aedt
!        Generated:      5:03:37 PM  Feb 06, 2021
!        Design:         Design1
!        Project:        WR12_SIW_MS_Transition
!        Setup:          Setup1
!        Solution:       Sweep
!
! Variables:
!        T_L2 = 35um
!        fil = 0.3mm
!        hm = 0.4mm
!        hsub = 0.127mm
!        hwg = 1.55mm
!        l1 = 1.05mm
!        lcav = 1.92mm
!        lt = 0.7mm
!        offx = 0um
!        offy = 0um
!        rvia = 0.075mm
!        s1 = 1.33mm
!        shift = 20um
!        sl = 3.08mm
!        sy = 0.65mm
!        th = 35um
!        w1 = 1.2mm
!        w50 = 300um
!        wcav = 3.5mm
!        wm = 1.9mm
!        wslot = 1.5mm
!        wt = 0.6mm
!        wwg = 3.1mm
!
!Data is not renormalized
# GHZ S MA
! Terminal data exported
! Port[1] = MS
! Port[2] = WG
70                             0.881067567010021 11.5855975547087 0.27372017591145 141.996669708808 0.27372017591145 141.996669708808 0.923646180238933 81.4463199768237 
! Gamma         0                1043.62849016908 0                0                0                0                2.94096414646766 2283.30777293713 
! Port Impedance538.380544946762 0                0                0                0                0                53.8901920451825 -0.013268412132387 

70.1                           0.889184706563051 5.9512064717873  0.243175417394011 139.252445867203 0.243175417394011 139.252445867203 0.929434012633911 78.8540636098086 
! Gamma         0                1046.57269740683 0                0                0                0                2.94422414779001 2286.66309962511 
! Port Impedance537.632929892588 0                0                0                0                0                53.8999460469802 -0.0132467596855918 

70.2                           0.895885952556714 0.176863118494704 0.209232012408776 136.872176581518 0.209232012408776 136.872176581518 0.934705888627495 76.0600098754803 
! Gamma         0                1049.51283058138 0                0                0                0                2.94748356961121 2290.01864705053 
! Port Impedance536.891593534416 0                0                0                0                0                53.9096968102117 -0.013225176214549 

70.3                           0.901018716646401 -5.74705274315945 0.171792253566201 135.305936056354 0.171792253566201 135.305936056355 0.939115324940617 73.0465872654787 
! Gamma         0                1052.44892383677 0                0                0                0                2.95074241387334 2293.3744149693  
! Port Impedance536.156457248083 0                0                0                0                0                53.9194443519592 -0.0132036615426704 

70.4                           0.904377797244654 -11.8313921949534 0.131081763833588 135.678795850946 0.131081763833589 135.678795850947 0.942231839602361 69.7972229173327 
! Gamma         0                1055.38101089044 0                0                0                0                2.95400068251426 2296.73040313811 
! Port Impedance535.427443739339 0                0                0                0                0                53.9291886892839 -0.0131822154931466 

70.5                           0.905692301328236 -18.0874442741573 0.0884805966922213 141.533115928201 0.088480596692223 141.533115928202 0.943536157513567 66.2975420629693 
! Gamma         0                1058.3091250404  0                0                0                0                2.95725837746757 2300.08661131437 
! Port Impedance534.704477015381 0                0                0                0                0                53.9389298392255 -0.013160837888951 

70.6                           0.904616118254671 -24.5257355155686 0.0517412275649345 167.399320254503 0.0517412275649366 167.399320254503 0.942424018530713 62.5369304380152 
! Gamma         0                1061.23329917231 0                0                0                0                2.96051550066258 2303.44303925621 
! Port Impedance533.987482357117 0                0                0                0                0                53.9486678188015 -0.0131395285528447 

70.7                           0.900725741116574 -31.1543663314008 0.0555654803476796 -135.332928738541 0.0555654803476809 -135.332928738543 0.938223622620252 58.5104262487694 
! Gamma         0                1064.15356576635 0                0                0                0                2.96377205402435 2306.79968672254 
! Port Impedance533.276386292154 0                0                0                0                0                53.9584026450065 -0.013118287307381 

70.8                           0.893530365266938 -37.9768789673254 0.102250887275657 -112.107881459307 0.102250887275657 -112.107881459307 0.930231789854866 54.2208063746163 
! Gamma         0                1067.06995690396 0                0                0                0                2.96702803947365 2310.15655347296 
! Port Impedance532.571116568471 0                0                0                0                0                53.9681343348112 -0.0130971139749101 

70.9                           0.882499668426359 -44.9897504576016 0.161417965594093 -107.794831114791 0.161417965594093 -107.794831114791 0.917772015312799 49.6805931495177 
! Gamma         0                1069.9825042745  0                0                0                0                2.9702834589269  2313.51363926784 
! Port Impedance531.871602128779 0                0                0                0                0                53.9778629051618 -0.0130760083775835 

71                             0.867113481861788 -52.1797576516307 0.225485260611396 -109.02606786801 0.225485260611397 -109.02606786801 0.900272877836109 44.9135632189407 
! Gamma         0                1072.89123918166 0                0                0                0                2.97353831429626 2316.87094386828 
! Port Impedance531.177773085513 0                0                0                0                0                53.9875883729792 -0.0130549703373587 

71.1                           0.846933560047217 -59.5216511483581 0.291955388348943 -112.479055202683 0.291955388348943 -112.479055202683 0.877357785125406 39.955250849268  
! Gamma         0                1075.79619254982 0                0                0                0                2.97679260748952 2320.22846703609 
! Port Impedance530.489560696478 0                0                0                0                0                53.9973107551583 -0.013033999676004 

71.2                           0.82169037970147 -66.9767394860937 0.359094476405095 -117.03344310727 0.359094476405096 -117.03344310727 0.848928783420478 34.8519863155192 
! Gamma         0                1078.69739493026 0                0                0                0                2.98004634041014 2323.58620853383 
! Port Impedance529.806897341096 0                0                0                0                0                54.0070300685675 -0.0130130962151031 

71.3                           0.791368756144568 -74.4930206227323 0.425329559613889 -122.189502636877 0.425329559613891 -122.189502636877 0.815222156586417 29.6582533035934 
! Gamma         0                1081.59487650723 0                0                0                0                2.98329951495722 2326.94416812479 
! Port Impedance529.129716497254 0                0                0                0                0                54.0167463300475 -0.0129922597760594 

71.4                           0.756269055384924 -82.007299307654 0.489210374043543 -127.671739176417 0.489210374043545 -127.671739176417 0.776816152455815 24.4325617508638 
! Gamma         0                1084.48866710388 0                0                0                0                2.98655213302551 2330.30234557298 
! Port Impedance528.457952718728 0                0                0                0                0                54.0264595564111 -0.0129714901801009 

71.5                           0.717021257596469 -89.4492710675933 0.549488498923753 -133.3036472464  0.549488498923755 -133.3036472464  0.734582822858013 19.2324764056026 
! Gamma         0                1087.37879618813 0                0                0                0                2.98980419650536 2333.66074064316 
! Port Impedance527.791541613173 0                0                0                0                0                54.0361697644421 -0.0129507872482851 

71.6                           0.674540129024861 -96.7469630521003 0.605202683133029 -138.961813081186 0.605202683133031 -138.961813081186 0.689592750981774 14.1097183144894 
! Gamma         0                1090.26529287831 0                0                0                0                2.99305570728275 2337.0193531008  
! Port Impedance527.130419820656 0                0                0                0                0                54.0458769708952 -0.0129301508015029 

71.7                           0.629928265545002 -103.832455862064 0.655728083844967 -144.557190889968 0.655728083844969 -144.557190889968 0.642995592835472 9.10622643884647 
! Gamma         0                1093.14818594884 0                0                0                0                2.99630666723923 2340.37818271208 
! Port Impedance526.474524992715 0                0                0                0                0                54.0555811924945 -0.0129095806604841 

71.8                           0.584351040261907 -110.646710128752 0.700776937343699 -150.026329481138 0.7007769373437  -150.026329481138 0.595904217072165 4.25174504699754 
! Gamma         0                1096.02750383563 0                0                0                0                2.99955707825196 2343.73722924395 
! Port Impedance525.823795771937 0                0                0                0                0                54.0652824459338 -0.0128890766458014 

71.9                           0.538914665229781 -117.142642246794 0.740357267085836 -155.326184199695 0.740357267085837 -155.326184199695 0.549304646323106 -0.436950830752649 
! Gamma         0                1098.90327464149 0                0                0                0                3.00280694219368 2347.09649246403 
! Port Impedance525.178171772034 0                0                0                0                0                54.074980747875  -0.0128686385778753 

72                             0.494573032462595 -123.28616254739 0.774706190311811 -160.43014910454 0.774706190311811 -160.43014910454 0.504002379045624 -4.95546967743475 
! Gamma         0                1101.77552614138 0                0                0                0                3.00605626093267 2350.45597214071 
! Port Impedance524.537593558403 0                0                0                0                0                54.0846761149482 -0.0128482662769787 

72.1                           0.452075504971431 -129.0554332791  0.804215731108963 -165.324558435167 0.804215731108963 -165.324558435167 0.460604155705643 -9.31034318594202 
! Gamma         0                1104.64428578759 0                0                0                0                3.00930503633279 2353.81566804307 
! Port Impedance523.902002629156 0                0                0                0                0                54.0943685637507 -0.0128279595632417 

72.2                           0.411954092706481 -134.43892600965 0.829364747198205 -170.005533153217 0.829364747198204 -170.005533153217 0.419526905187402 -13.5171955754221 
! Gamma         0                1107.50958071474 0                0                0                0                3.01255327025343 2357.17557994091 
! Port Impedance523.27134139661  0                0                0                0                0                54.1040581108466 -0.0128077182566559 

72.3                           0.374539824674283 -139.432919637642 0.850664390762327 -174.47623392027 0.850664390762326 -174.47623392027 0.381023248206893 -17.598941968244 
! Gamma         0                1110.37143774478 0                0                0                0                3.01580096454951 2360.53570760477 
! Port Impedance522.645553169222 0                0                0                0                0                54.1137447727658 -0.0127875421770792 

72.4                           0.33999566971976 -144.038961561182 0.868619162527023 -178.74458469701 0.868619162527022 -178.74458469701 0.345214115238704 -21.5842672345003 
! Gamma         0                1113.22988339184 0                0                0                0                3.01904812107147 2363.89605080589 
! Port Impedance522.024582133954 0                0                0                0                0                54.123428566004  -0.0127674311442404 

72.5                           0.308355180283023 -148.261628398374 0.883702189753878 177.178520425539 0.883702189753877 177.178520425539 0.312121783594076 -25.5065011664783 
! Gamma         0                1116.08494386696 0                0                0                0                3.02229474166528 2367.25660931622 
! Port Impedance521.408373339056 0                0                0                0                0                54.1331095070215 -0.0127473849777441 

72.6                           0.279559580707819 -152.106752066194 0.896341793042455 173.280563816884 0.896341793042453 173.280563816884 0.281699477804509 -29.4029058670333 
! Gamma         0                1118.93664508279 0                0                0                0                3.0255408281724  2370.61738290844 
! Port Impedance520.796872677268 0                0                0                0                0                54.1427876122431 -0.0127274034970748 

72.7                           0.253489466404714 -155.580159041141 0.906916128993321 169.548370289109 0.906916128993319 169.548370289109 0.253855886415217 -33.3143258221467 
! Gamma         0                1121.78501265815 0                0                0                0                3.02878638242977 2373.97837135593 
! Port Impedance520.190026869403 0                0                0                0                0                54.1524628980571 -0.0127074865216018 

72.8                           0.22998980740609 -158.686908075965 0.915753098975192 165.968768251322 0.91575309897519 165.968768251322 0.228474366481891 -37.2851070030522 
! Gamma         0                1124.63007192253 0                0                0                0                3.03203140626983 2377.33957443278 
! Port Impedance519.587783448329 0                0                0                0                0                54.1621353808151 -0.0126876338705838 

72.9                           0.208888457821093 -161.430991058549 0.923133360051246 162.529018455158 0.923133360051245 162.529018455158 0.205427357982405 -41.3631510778371 
! Gamma         0                1127.47184792048 0                0                0                0                3.03527590152049 2380.7009919138  
! Port Impedance518.99009074332  0                0                0                0                0                54.1718050768312 -0.0126678453631735 

73                             0.190009084962357 -163.815465831164 0.92929491486528 159.217072638224 0.929294914865277 159.217072638224 0.184586817310815 -45.5999165699081 
! Gamma         0                1130.31036541593 0                0                0                0                3.03851987000511 2384.06262357449 
! Port Impedance518.396897864775 0                0                0                0                0                54.1814720023818 -0.0126481208184221 

73.1                           0.173179637149656 -165.843003054436 0.934438286219318 156.021712101969 0.934438286219316 156.021712101969 0.165831481919816 -50.0500941335606 
! Gamma         0                1133.14564889641 0                0                0                0                3.04176331354252 2387.42446919108 
! Port Impedance517.808154689288 0                0                0                0                0                54.1911361737044 -0.0126284600552839 

73.2                           0.158237404428447 -167.516838407741 0.938731674714205 152.932604477712 0.938731674714203 152.932604477712 0.149051620765654 -54.7705568029636 
! Gamma         0                1135.97772257723 0                0                0                0                3.04500623394698 2390.78652854049 
! Port Impedance517.223811845067 0                0                0                0                0                54.2007976069978 -0.0126088628926209 

73.3                           0.145031550443673 -168.842114769385 0.942315768324037 149.940306850456 0.942315768324036 149.940306850457 0.134151679134817 -59.8180237236995 
! Gamma         0                1138.80661040554 0                0                0                0                3.0482486330282  2394.14880140034 
! Port Impedance516.643820697688 0                0                0                0                0                54.2104563184211 -0.0125893291492074 

73.4                           0.133423799489291 -169.827565752393 0.945308048056428 147.036235360467 0.945308048056427 147.036235360467 0.121050932772513 -65.2447267141766 
! Gamma         0                1141.63233606431 0                0                0                0                3.05149051259131 2397.51128754895 
! Port Impedance516.068133336176 0                0                0                0                0                54.2201123240934 -0.0125698586437344 

73.5                           0.123287798998434 -170.487424486531 0.947806540912904 144.212615271827 0.947806540912904 144.212615271827 0.109681969300222 -71.0913711463675 
! Gamma         0                1144.4549229763  0                0                0                0                3.05473187443685 2400.87398676535 
! Port Impedance515.496702559402 0                0                0                0                0                54.2297656400932 -0.0125504511948142 

73.6                           0.114507566057247 -170.843341184906 0.949893032410441 141.46242098419  0.949893032410441 141.46242098419  0.0999866081869643 -77.3771048167787 
! Gamma         0                1147.27439430784 0                0                0                0                3.05797272036077 2404.23689882927 
! Port Impedance514.929481862791 0                0                0                0                0                54.2394162824581 -0.0125311066209851 

73.7                           0.106975370812101 -170.925978737458 0.951635782430729 138.779312228221 0.951635782430729 138.779312228221 0.0919089389119143 -84.0873984241666 
! Gamma         0                1150.09077297266 0                0                0                0                3.06121305215443 2407.60002352113 
! Port Impedance514.366425425335 0                0                0                0                0                54.2490642671838 -0.0125118247407157 

73.8                           0.100589398641967 -170.775870354476 0.953091801574597 136.157570415297 0.953091801574596 136.157570415297 0.085385751510373 -91.1628106296856 
! Gamma         0                1152.9040816356  0                0                0                0                3.06445287160459 2410.96336062203 
! Port Impedance513.807488096889 0                0                0                0                0                54.2587096102244 -0.0124926053724093 

73.9                           0.0952515402664605 -170.443128971247 0.954308748094616 133.592037550573 0.954308748094616 133.592037550573 0.0803358684840037 -98.4938001097626 
! Gamma         0                1155.71434271618 0                0                0                0                3.06769218049337 2414.32690991379 
! Port Impedance513.252625385766 0                0                0                0                0                54.2683523274912 -0.0124734483344087 

74                             0.0908656467858877 -169.985749047692 0.955326502682592 131.078059064898 0.955326502682593 131.078059064898 0.0766513520828608 -105.927050257823 
! Gamma         0                1158.52157839225 0                0                0                0                3.07093098059829 2417.6906711789  
! Port Impedance512.701793446599 0                0                0                0                0                54.2779924348526 -0.0124543534450007 

74.1                           0.0873365188752148 -169.466541179705 0.956178472855654 128.611431225106 0.956178472855654 128.611431225106 0.0741941471761075 -113.285138097624 
! Gamma         0                1161.32581060345 0                0                0                0                3.07416927369222 2421.05464420056 
! Port Impedance512.154949068477 0                0                0                0                0                54.2876299481337 -0.0124353205224199 

74.2                           0.0845697618893391 -168.949109127717 0.956892672152238 126.188353334079 0.956892672152238 126.188353334079 0.0728003261597452 -120.394616036419 
! Gamma         0                1164.12706105467 0                0                0                0                3.0774070615434  2424.41882876265 
! Port Impedance511.612049663348 0                0                0                0                0                54.2972648831156 -0.0124163493848541 

74.3                           0.0824724549202893 -168.493571826786 0.957492612785445 123.805384653319 0.957492612785446 123.805384653319 0.0722910145921867 -127.112447392155 
! Gamma         0                1166.92535121939 0                0                0                0                3.08064434591543 2427.78322464971 
! Port Impedance511.073053254673 0                0                0                0                0                54.3068972555352 -0.0123974398504481 

74.4                           0.0809544078140498 -168.152813438483 0.957998044302654 121.459405816189 0.957998044302655 121.459405816189 0.0724862745764717 -133.341778706659 
! Gamma         0                1169.72070234305 0                0                0                0                3.08388112856725 2431.14783164701 
! Port Impedance510.537918466335 0                0                0                0                0                54.3165270810844 -0.0123785917373081 

74.5                           0.0799296758708531 -167.969872806323 0.958425565384482 119.147584411018 0.958425565384484 119.147584411017 0.0732176132857029 -139.034278819883 
! Gamma         0                1172.51313544628 0                0                0                0                3.08711741125313 2434.51264954047 
! Port Impedance510.006604511789 0                0                0                0                0                54.3261543754104 -0.0123598048635065 

74.6                           0.0793179977943943 -167.976743826204 0.958789131242371 116.867344373456 0.958789131242373 116.867344373456 0.0743363607463827 -144.18243933503 
! Gamma         0                1175.30267132808 0                0                0                0                3.09035319572269 2437.87767811671 
! Port Impedance509.479071183449 0                0                0                0                0                54.3357791541143 -0.0123410790470861 

74.7                           0.0790459046319787 -168.194501387935 0.959100475116295 114.616338818747 0.959100475116295 114.616338818747 0.0757173865012999 -148.807560792909 
! Gamma         0                1178.08933056899 0                0                0                0                3.09358848372085 2441.24291716301 
! Port Impedance508.955278842305 0                0                0                0                0                54.3454014327516 -0.0123224141060642 

74.8                           0.0790473714361981 -168.634420634935 0.95936945906617 112.392425954783 0.95936945906617 112.392425954783 0.0772591360193075 -152.948009005613 
! Gamma         0                1180.87313353415 0                0                0                0                3.09682327698789 2444.60836646734 
! Port Impedance508.435188407771 0                0                0                0                0                54.3550212268311 -0.0123038098584373 

74.9                           0.0792640013927499 -169.299667223027 0.959604366510259 110.193647737912 0.95960436651026 110.193647737911 0.078881438718616 -156.650016125956 
! Gamma         0                1183.65410037635 0                0                0                0                3.10005757725936 2447.97402581834 
! Port Impedance507.918761347746 0                0                0                0                0                54.3646385518152 -0.0122852661221855 

75                             0.0796448141543277 -170.187175283147 0.959812146708204 108.018210960123 0.959812146708204 108.018210960123 0.0805223358712139 -159.961475726974 
! Gamma         0                1186.432251039   0                0                0                0                3.10329138626613 2451.33989500534 
! Port Impedance507.405959668892 0                0                0                0                0                54.3742534231187 -0.0122667827152763 

75.1                           0.080145748791965 -171.289436583349 0.95999861953708 105.864470485109 0.95999861953708 105.864470485109 0.0821347507017005 -162.928261222223 
! Gamma         0                1189.20760525901 0                0                0                0                3.10652470573438 2454.70597381831 
! Port Impedance506.89674590712  0                0                0                0                0                54.3838658561091 -0.0122483594556694 

75.2                           0.0807289955559978 -172.596042794715 0.960168647397331 103.730914379578 0.960168647397332 103.730914379578 0.0836834378969038 -165.592343574497 
! Gamma         0                1191.98018256975 0                0                0                0                3.10975753738558 2458.07226204792 
! Port Impedance506.391083118282 0                0                0                0                0                54.3934758661059 -0.012229996161321 

75.3                           0.0813622536335184 -174.094919573845 0.960326279851586 101.616150713984 0.960326279851587 101.616150713984 0.0851423878824448 -167.991056497581 
! Gamma         0                1194.75000230376 0                0                0                0                3.11298988293647 2461.4387594855  
! Port Impedance505.888934869052 0                0                0                0                0                54.4030834683802 -0.0122116926501875 

75.4                           0.0820179869484074 -175.773255461842 0.960474875593477 99.5188958326556 0.960474875593477 99.5188958326555 0.0864927129642463 -170.157028102546 
! Gamma         0                1197.51708359563 0                0                0                0                3.11622174409909 2464.80546592303 
! Port Impedance505.390265228014 0                0                0                0                0                54.4126886781547 -0.0121934487402304 

75.5                           0.0826727251142365 -177.618163230012 0.96061720552323 97.4379639169328 0.96061720552323 97.4379639169327 0.0877209720069611 -172.118461544373 
! Gamma         0                1200.28144538465 0                0                0                0                3.11945312258075 2468.17238115318 
! Port Impedance504.895038756928 0                0                0                0                0                54.4222915106028 -0.0121752642494202 

75.6                           0.0833064360330448 -179.617124539918 0.960755540037982 95.3722576862661 0.960755540037982 95.372257686266  0.0888178650510938 -173.899570937308 
! Gamma         0                1203.04310641749 0                0                0                0                3.12268402008402 2471.53950496926 
! Port Impedance504.403220502183 0                0                0                0                0                54.4318919808487 -0.0121571389957406 

75.7                           0.0839019815005114 178.241730910557 0.960891723098836 93.3207601012205 0.960891723098836 93.3207601012203 0.0897772269142436 -175.521062008253 
! Gamma         0                1205.80208525086 0                0                0                0                3.12591443830676 2474.90683716525 
! Port Impedance503.91477598643  0                0                0                0                0                54.441490103967  -0.0121390727971928 

75.8                           0.0844446570980186 175.969466731253 0.961027235190793 91.2825269492363 0.961027235190793 91.2825269492362 0.0905952563778827 -177.000598969137 
! Gamma         0                1208.55840025409 0                0                0                0                3.12914437894207 2478.27437753579 
! Port Impedance503.42967120039  0                0                0                0                0                54.451085894982  -0.0121210654717996 

75.9                           0.0849218115636051 173.576265080747 0.961163246927056 89.2566802088496 0.961163246927056 89.2566802088495 0.0912699282239273 -178.353229880113 
! Gamma         0                1211.31206961164 0                0                0                0                3.13237384367831 2481.64212587617 
! Port Impedance502.947872594828 0                0                0                0                0                54.4606793688679 -0.0121031168376094 
