! Touchstone file exported from HFSS 2020.1.3
!        File:           /home/erdoel/scratch/P2S30/WR12_SIW_MS_Transition.aedt
!        Generated:      4:59:09 PM  Feb 06, 2021
!        Design:         Design1
!        Project:        WR12_SIW_MS_Transition
!        Setup:          Setup1
!        Solution:       Sweep
!
! Variables:
!        T_L2 = 35um
!        fil = 0.3mm
!        hm = 0.4mm
!        hsub = 0.127mm
!        hwg = 1.55mm
!        l1 = 1.05mm
!        lcav = 1.92mm
!        lt = 0.7mm
!        offx = 0um
!        offy = 40um
!        rvia = 0.075mm
!        s1 = 1.33mm
!        shift = 20um
!        sl = 3.1mm
!        sy = 0.65mm
!        th = 35um
!        w1 = 1.2mm
!        w50 = 300um
!        wcav = 3.5mm
!        wm = 1.9mm
!        wslot = 1.5mm
!        wt = 0.6mm
!        wwg = 3.1mm
!
# GHZ S MA R 50.000000
! Terminal data exported
! Port[1] = MS
! Port[2] = WG
70                             0.901059807315174 5.69750925871365 0.178480362631781 101.722761371125 0.178480362631781 101.722761371125 0.977657045624323 10.4077459967636 
! Gamma         0                1043.63065965527 0                0                0                0                3.01627322552705 2282.21101456185 
! Port Impedance50               0                0                0                0                0                50               0                

70.1                           0.903657099689934 -0.164326415367008 0.165251939760526 99.1868707930932 0.165251939760526 99.1868707930932 0.979878943422761 10.074045496616  
! Gamma         0                1046.57486078986 0                0                0                0                3.01958159139536 2285.56457673418 
! Port Impedance50               0                0                0                0                0                50               0                

70.2                           0.905445946688095 -6.12042085657472 0.151228948746219 96.6928837721765 0.151228948746219 96.6928837721765 0.982038120944885 9.72370110384699 
! Gamma         0                1049.51498790385 0                0                0                0                3.0228892992482  2288.91835961168 
! Port Impedance50               0                0                0                0                0                50               0                

70.3                           0.906491410815372 -12.1745508368183 0.136393713357168 94.2868642732086 0.136393713357168 94.2868642732086 0.984101397077244 9.35595192364557 
! Gamma         0                1052.45107514082 0                0                0                0                3.02619635118411 2292.2723629515  
! Port Impedance50               0                0                0                0                0                50               0                

70.4                           0.906867968680489 -18.3310068990701 0.120738754945976 92.0449176437457 0.120738754945977 92.0449176437455 0.986031754873463 8.97022534721723 
! Gamma         0                1055.38315621769 0                0                0                0                3.02950274929688 2295.62658651148 
! Port Impedance50               0                0                0                0                0                50               0                

70.5                           0.906659351178743 -24.5946411935206 0.104272871633957 90.1001535373043 0.104272871633958 90.1001535373041 0.987788420787756 8.56618234544666 
! Gamma         0                1058.31126443201 0                0                0                0                3.0328084956756  2298.98103005024 
! Port Impedance50               0                0                0                0                0                50               0                

70.6                           0.905957427904269 -30.9709771481759 0.0870330500560155 88.7048719901496 0.087033050056016 88.7048719901496 0.989327123438616 8.1437684380691  
! Gamma         0                1061.23543266895 0                0                0                0                3.03611359240458 2302.3356933271  
! Port Impedance50               0                0                0                0                0                50               0                

70.7                           0.904859077894382 -37.466367929488 0.0691134241097469 88.3955237353592 0.0691134241097472 88.3955237353591 0.990600586644029 7.70326897946298 
! Gamma         0                1064.15569340822 0                0                0                0                3.03941804156339 2305.69057610212 
! Port Impedance50               0                0                0                0                0                50               0                

70.8                           0.903459843231672 -44.0881467674954 0.0507568153487762 90.5224887874055 0.0507568153487765 90.5224887874053 0.991559311714737 7.24536629844351 
! Gamma         0                1067.07207873083 0                0                0                0                3.04272184522681 2309.04567813612 
! Port Impedance50               0                0                0                0                0                50               0                

70.9                           0.901843446964627 -50.844649757511 0.0327607194084361 99.453670041119  0.0327607194084363 99.4536700411185 0.992152695352259 6.77119490437593 
! Gamma         0                1069.98462032565 0                0                0                0                3.04602500546486 2312.40099919061 
! Port Impedance50               0                0                0                0                0                50               0                

71                             0.900067299738241 -57.7449265833599 0.0191399186256765 132.505101941048 0.0191399186256766 132.505101941048 0.992330508422415 6.28238960732622 
! Gamma         0                1072.89334949596 0                0                0                0                3.04932752434275 2315.75653902786 
! Port Impedance50               0                0                0                0                0                50               0                

71.1                           0.898146116533949 -64.7979257774689 0.0234382012894495 -171.445570475915 0.0234382012894494 -171.445570475916 0.992044725652306 5.78112031623746 
! Gamma         0                1075.79829716568 0                0                0                0                3.05262940392089 2319.11229741084 
! Port Impedance50               0                0                0                0                0                50               0                

71.2                           0.896038413248814 -72.0110071288451 0.0413211610318881 -150.936930340282 0.0413211610318881 -150.936930340282 0.991251649334542 5.27010687704553 
! Gamma         0                1078.69949388568 0                0                0                0                3.05593064625487 2322.46827410328 
! Port Impedance50               0                0                0                0                0                50               0                

71.3                           0.893642781670655 -79.3878418603193 0.0625523611283491 -145.720576553889 0.0625523611283492 -145.720576553889 0.989914219267645 4.7526079025252  
! Gamma         0                1081.59696983978 0                0                0                0                3.05923125339547 2325.82446886961 
! Port Impedance50               0                0                0                0                0                50               0                

71.4                           0.890810511743971 -86.9260888075437 0.0849725523829015 -145.161319071974 0.0849725523829016 -145.161319071975 0.988004357807534 4.23237912097736 
! Gamma         0                1084.49075485071 0                0                0                0                3.0625312273886  2329.18088147501 
! Port Impedance50               0                0                0                0                0                50               0                

71.5                           0.887376718367789 -94.6155428269673 0.107996510126946 -146.507120092773 0.107996510126946 -146.507120092773 0.985505172060927 3.71359892813543 
! Gamma         0                1087.38087838596 0                0                0                0                3.06583057027536 2332.53751168535 
! Port Impedance50               0                0                0                0                0                50               0                

71.6                           0.883204179094798 -102.43751936883 0.131334570847814 -148.811204167796 0.131334570847814 -148.811204167796 0.982412825486813 3.2007610463195  
! Gamma         0                1090.2673695635  0                0                0                0                3.06912928409196 2335.89435926725 
! Port Impedance50               0                0                0                0                0                50               0                

71.7                           0.878226361257348 -110.365914308969 0.154772915644058 -151.664745733326 0.154772915644058 -151.664745733326 0.978737891977402 2.69853637360351 
! Gamma         0                1093.15025715732 0                0                0                0                3.07242737086976 2339.25142398806 
! Port Impedance50               0                0                0                0                0                50               0                

71.8                           0.872473901001789 -118.369747285054 0.178121243102758 -154.859752029829 0.178121243102758 -154.859752029829 0.974506014329928 2.21160875751529 
! Gamma         0                1096.02956960296 0                0                0                0                3.07572483263523 2342.60870561581 
! Port Impedance50               0                0                0                0                0                50               0                

71.9                           0.866074752673454 -126.416394626061 0.201199979059806 -158.276005524103 0.201199979059806 -158.276005524103 0.96975771693602 1.74449306632675 
! Gamma         0                1098.90533500282 0                0                0                0                3.07902167140996 2345.96620391928 
! Port Impedance50               0                0                0                0                0                50               0                

72                             0.859229413637338 -134.474504049797 0.223839811844478 -161.836494774229 0.223839811844477 -161.836494774229 0.964547287116242 1.30134810432014 
! Gamma         0                1101.77758113151 0                0                0                0                3.08231788921064 2349.32391866797 
! Port Impedance50               0                0                0                0                0                50               0                

72.1                           0.852172303867026 -142.515861974393 0.24588518820956 -165.487754719551 0.24588518820956 -165.487754719551 0.958940744349335 0.885800067213899 
! Gamma         0                1104.64633544092 0                0                0                0                3.08561348804904 2352.68184963207 
! Port Impedance50               0                0                0                0                0                50               0                

72.2                           0.84513333003999 -150.516035881436 0.267198374626164 -169.190432216916 0.267198374626164 -169.190432216916 0.953013039633548 0.500792748612844 
! Gamma         0                1107.51162506531 0                0                0                0                3.08890846993203 2356.03999658252 
! Port Impedance50               0                0                0                0                0                50               0                

72.3                           0.838309832936838 -158.45409488049 0.287662646291798 -172.914407111238 0.287662646291798 -172.914407111238 0.946844732381828 0.148478099505691 
! Gamma         0                1110.37347682626 0                0                0                0                3.09220283686154 2359.39835929095 
! Port Impedance50               0                0                0                0                0                50               0                

72.4                           0.831852425798866 -166.311910302832 0.30718416587473 -176.63607046133 0.30718416587473 -176.63607046133 0.94051845170464 -0.16984419145194 
! Gamma         0                1113.23191723739 0                0                0                0                3.09549659083456 2362.75693752971 
! Port Impedance50               0                0                0                0                0                50               0                

72.5                           0.825862783286108 -174.073466218497 0.325692593954002 179.663312910237 0.325692593954002 179.663312910237 0.934115454457207 -0.453735325810594 
! Gamma         0                1116.08697251001 0                0                0                0                3.09878973384316 2366.11573107185 
! Port Impedance50               0                0                0                0                0                50               0                

72.6                           0.820399007284313 178.275590308856 0.343140635632538 175.998658743185 0.343140635632538 175.998658743185 0.927712552028657 -0.703577111819147 
! Gamma         0                1118.93866855565 0                0                0                0                3.10208226787442 2369.47473969115 
! Port Impedance50               0                0                0                0                0                50               0                

72.7                           0.815484305526815 170.748119034377 0.359502742594473 172.381782687136 0.359502742594473 172.381782687136 0.921379606865065 -0.920490253458534 
! Gamma         0                1121.78703099313 0                0                0                0                3.10537419491048 2372.83396316207 
! Port Impedance50               0                0                0                0                0                50               0                

72.8                           0.811116035292972 163.355448829725 0.374773168833111 168.821917918599 0.374773168833112 168.821917918599 0.915177714560448 -1.10622180496438 
! Gamma         0                1124.63208515159 0                0                0                0                3.1086655169285  2376.19340125981 
! Port Impedance50               0                0                0                0                0                50               0                

72.9                           0.807273592182118 156.107239578526 0.388963565060784 165.326108528631 0.388963565060785 165.326108528631 0.909158102729419 -1.26301382254973 
! Gamma         0                1127.47385607524 0                0                0                0                3.11195623590067 2379.55305376025 
! Port Impedance50               0                0                0                0                0                50               0                

73                             0.803924652073274 149.011336432305 0.402100292350213 161.899525748484 0.402100292350214 161.899525748484 0.903361705371474 -1.39346509334613 
! Gamma         0                1130.31236852767 0                0                0                0                3.11524635379418 2382.91292043999 
! Port Impedance50               0                0                0                0                0                50               0                

73.1                           0.801029834102434 142.073675786527 0.414221628089229 158.545735396335 0.414221628089229 158.545735396335 0.897819318424187 -1.50039637623368 
! Gamma         0                1133.1476469961  0                0                0                0                3.11853587257122 2386.27300107631 
! Port Impedance50               0                0                0                0                0                50               0                

73.2                           0.798546069915388 135.298269187438 0.425375019046542 155.266932796833 0.425375019046543 155.266932796833 0.89255221140148 -1.58672729569248 
! Gamma         0                1135.97971569552 0                0                0                0                3.12182479418899 2389.63329544721 
! Port Impedance50               0                0                0                0                0                50               0                

73.3                           0.796428992462369 128.687266884751 0.435614506972266 152.064153668611 0.435614506972266 152.064153668611 0.887573060007782 -1.65537037250289 
! Gamma         0                1138.80859857277 0                0                0                0                3.12511312059967 2392.99380333139 
! Port Impedance50               0                0                0                0                0                50               0                

73.4                           0.794634607510142 122.241088289098 0.444998416287902 148.937464851012 0.444998416287902 148.937464851012 0.882887071162446 -1.70914507931796 
! Gamma         0                1141.63431931051 0                0                0                0                3.12840085375041 2396.35452450823 
! Port Impedance50               0                0                0                0                0                50               0                

73.5                           0.793120444443254 115.958600333531 0.453587356892055 145.886136305793 0.453587356892055 145.886136305794 0.878493189458083 -1.75071257828952 
! Gamma         0                1144.4569013312  0                0                0                0                3.13168799558336 2399.71545875783 
! Port Impedance50               0                0                0                0                0                50               0                

73.6                           0.791846325758928 109.837323989449 0.461442562627223 142.908794813036 0.461442562627222 142.908794813036 0.874385297309513 -1.7825300953955 
! Gamma         0                1147.27636780086 0                0                0                0                3.1349745480356  2403.07660586095 
! Port Impedance50               0                0                0                0                0                50               0                

73.7                           0.790774853313188 103.873651548271 0.46862456022923 140.003559588689 0.46862456022923 140.003559588689 0.870553345501549 -1.80682275142197 
! Gamma         0                1150.09274163294 0                0                0                0                3.1382605130392  2406.43796559908 
! Port Impedance50               0                0                0                0                0                50               0                

73.8                           0.789871681913761 98.0630609956842 0.475192145442746 137.168160264594 0.475192145442746 137.168160264594 0.866984373434456 -1.82557005331465 
! Gamma         0                1152.90604549197 0                0                0                0                3.14154589252115 2409.79953775438 
! Port Impedance50               0                0                0                0                0                50               0                

73.9                           0.789105633139142 92.4003177578775 0.481201631928828 134.400038022714 0.481201631928828 134.400038022714 0.863663397341776 -1.84050405226799 
! Gamma         0                1155.7163017972  0                0                0                0                3.14483068840341 2413.16132210969 
! Port Impedance50               0                0                0                0                0                50               0                

74                             0.788448690561123 86.8796576715393 0.48670633337814 131.696431012384 0.486706333378139 131.696431012384 0.860574159442083 -1.85311627969669 
! Gamma         0                1158.5235327262  0                0                0                0                3.14811490260287 2416.52331844857 
! Port Impedance50               0                0                0                0                0                50               0                

74.1                           0.78787590927013 81.4949479478515 0.491756238392679 129.054445432132 0.491756238392679 129.054445432132 0.857699741463934 -1.86467086813996 
! Gamma         0                1161.32776021831 0                0                0                0                3.15139853703134 2419.88552655524 
! Port Impedance50               0                0                0                0                0                50               0                

74.2                           0.787365266217329 76.2398251040553 0.496397839789983 126.471113804989 0.496397839789983 126.471113804989 0.855023052774194 -1.87622165881264 
! Gamma         0                1164.12900597816 0                0                0                0                3.15468159359557 2423.24794621461 
! Port Impedance50               0                0                0                0                0                50               0                

74.3                           0.786897472607599 71.107810380026  0.500674083823464 123.943442025016 0.500674083823464 123.943442025016 0.852527207163406 -1.88863152191794 
! Gamma         0                1166.92729147895 0                0                0                0                3.15796407419721 2426.61057721227 
! Port Impedance50               0                0                0                0                0                50               0                

74.4                           0.786455765053636 66.0924041498468 0.504624409489264 121.468446722005 0.504624409489264 121.468446722005 0.850195803944605 -1.90259252363746 
! Gamma         0                1169.72263796587 0                0                0                0                3.16124598073283 2429.9734193345  
! Port Impedance50               0                0                0                0                0                50               0                

74.5                           0.786025688301489 61.187161401932  0.50828485296293 119.04318440351  0.50828485296293 119.04318440351  0.848013129079122 -1.91864593768868 
! Gamma         0                1172.51506645927 0                0                0                0                3.16452731509392 2433.33647236825 
! Port Impedance50               0                0                0                0                0                50               0                

74.6                           0.785594879016631 56.3857506105114 0.51168819686686 116.664773709318 0.51168819686686 116.664773709318 0.845964291111571 -1.93720140676373 
! Gamma         0                1175.30459775789 0                0                0                0                3.16780807916685 2436.69973610114 
! Port Impedance50               0                0                0                0                0                50               0                

74.7                           0.785152857350474 51.681998353748  0.514864148276837 114.330411970644 0.514864148276836 114.330411970644 0.844035305204332 -1.95855480729747 
! Gamma         0                1178.09125244202 0                0                0                0                3.1710882748329  2440.0632103215  
! Port Impedance50               0                0                0                0                0                50               0                

74.8                           0.784690830755958 47.0699219267739 0.517839533024553 112.037387117535 0.517839533024552 112.037387117535 0.84221313681844 -1.98290456333297 
! Gamma         0                1180.87505087654 0                0                0                0                3.17436790396821 2443.42689481828 
! Port Impedance50               0                0                0                0                0                50               0                

74.9                           0.784201512738695 42.5437520095052 0.520638496918396 109.783085832515 0.520638496918395 109.783085832515 0.840485714801435 -2.01036629854451 
! Gamma         0                1183.656013214   0                0                0                0                3.17764696844384 2446.79078938116 
! Port Impedance50               0                0                0                0                0                50               0                

75                             0.783678957858504 38.0979472208623 0.523282707014122 107.564998712109 0.523282707014122 107.564998712109 0.838841921944084 -2.04098581784867 
! Gamma         0                1186.43415939755 0                0                0                0                3.18092547012572 2450.15489380044 
! Port Impedance50               0                0                0                0                0                50               0                

75.1                           0.783118413271546 33.7272021512015 0.525791548075473 105.380723073877 0.525791548075472 105.380723073877 0.837271569530208 -2.07475047961234 
! Gamma         0                1189.20950916388 0                0                0                0                3.18420341087463 2453.51920786711 
! Port Impedance50               0                0                0                0                0                50               0                

75.2                           0.782516186363494 29.4264502315316 0.528182310939543 103.227963936484 0.528182310939542 103.227963936484 0.835765361059985 -2.11159906368806 
! Gamma         0                1191.98208204608 0                0                0                0                3.18748079254623 2456.88373137284 
! Port Impedance50               0                0                0                0                0                50               0                

75.3                           0.781869527512376 25.1908625822389 0.530470370711733 101.104533604322 0.530470370711733 101.104533604322 0.834314849184151 -2.15143026575857 
! Gamma         0                1194.7518973765  0                0                0                0                3.19075761699107 2460.24846410994 
! Port Impedance50               0                0                0                0                0                50               0                

75.4                           0.781176526686578 21.0158437910998 0.532669353625729 99.0083502057033 0.532669353625728 99.0083502057033 0.832912388934921 -2.19410996000375 
! Gamma         0                1197.51897428947 0                0                0                0                3.19403388605452 2463.61340587139 
! Port Impedance50               0                0                0                0                0                50               0                

75.5                           0.780436022387725 16.8970254024736 0.534791292072914 96.9374354637065 0.534791292072914 96.9374354637066 0.831551089561524 -2.23947737406758 
! Gamma         0                1200.28333172404 0                0                0                0                3.19730960157683 2466.97855645085 
! Port Impedance50               0                0                0                0                0                50               0                

75.6                           0.779647521357283 12.8302577565264 0.536846767783179 94.8899119200375 0.536846767783179 94.8899119200375 0.830224766651776 -2.28735031589138 
! Gamma         0                1203.04498842668 0                0                0                0                3.20058476539309 2470.3439156426  
! Port Impedance50               0                0                0                0                0                50               0                

75.7                           0.778811127454243 8.81160069764351 0.538845043466796 92.8639997835604 0.538845043466795 92.8639997835604 0.828927895723755 -2.3375295835702 
! Gamma         0                1205.80396295386 0                0                0                0                3.20385937933324 2473.70948324162 
! Port Impedance50               0                0                0                0                0                50               0                

75.8                           0.77792747816036 4.83731357256989 0.54079418343938 90.8580135351587 0.540794183439379 90.8580135351587 0.827655568081721 -2.38980267870317 
! Gamma         0                1208.56027367469 0                0                0                0                3.20713344522205 2477.07525904351 
! Port Impedance50               0                0                0                0                0                50               0                

75.9                           0.776997687265121 0.903844858604702 0.542701163876613 88.8703583881352 0.542701163876613 88.8703583881352 0.826403449428691 -2.44394693195586 
! Gamma         0                1211.31393877341 0                0                0                0                3.21040696487915 2480.44124284454 
! Port Impedance50               0                0                0                0                0                50               0                

76                             0.776023292415002 -2.99217830230886 0.544571973404768 86.8995266774598 0.544571973404767 86.8995266774598 0.825167741497768 -2.49973213755341 