! Touchstone file exported from HFSS 2022.1.2
!        File:           /home/erdoel/scratch/AFiP/platedesign_afip_wr10.aedt
!        Generated:      7:34:06 PM  May 05, 2022
!        Design:         HFSSDesign6_Zpv
!        Project:        platedesign_afip_wr10
!        Setup:          Setup1
!        Solution:       Sweep
!
! Variables:
!        HL1 = 5.365mm
!        HL2 = 4.95mm
!        M25thread = 1.0335mm
!        M2thread = 0.7835mm
!        chm = 0.9mm
!        chm2 = 0.9mm
!        fil = 0.5mm
!        ht = 3.365mm
!        hwg = 1.27mm
!        mit = 5mm
!        mit2 = 14mm
!        rad2 = 0.785mm
!        radalign1 = 0.835mm
!        radbig = 1.08mm
!        rim = 500um
!        step = 50um
!        th1 = 29.1214718231584deg
!        thgap = 1.5mm
!        wwg = 2.54mm
!        x1 = 5.175mm
!        x2 = 4.55mm
!        xa = 20mm
!        xb1 = 30mm
!        xb2 = 9mm
!        xc = 3mm
!        y0 = 5.175mm
!        y1 = 4.55mm
!        y2 = 0
!        y3 = -5.175mm
!        ya = 15mm
!        yb = -21mm
!        yb1 = -8mm
!        ystep = 0.7mm
!
!Data is not renormalized
# GHz S MA
! Terminal data exported
! Port[1] = rx1in
! Port[2] = rx1out
! Port[3] = rx2in
! Port[4] = rx2out
! Port[5] = tx1in
! Port[6] = tx1out
! Port[7] = tx2in
! Port[8] = tx2out
70                             0.202593498591646 54.6628506203785 0.979262924003762 -145.437987649021 0                0                0                0                
                               0                0                0                0                0                0                0                0                
                               0.979262924003761 -145.437987649021 0.202593498591646 -165.538825918421 0                0                0                0                
                               0                0                0                0                0                0                0                0                
                               0                0                0                0                0.471109083317991 -55.6790976824478 0.882074958047946 172.514789954465 
                               0                0                0                0                0                0                0                0                
                               0                0                0                0                0.882074958047941 172.514789954465 0.471109083317991 -139.291322408622 
                               0                0                0                0                0                0                0                0                
                               0                0                0                0                0                0                0                0                
                               0.221293272811516 21.6669445253592 0.975207304837471 30.7888053492602 0                0                0                0                
                               0                0                0                0                0                0                0                0                
                               0.975207304837475 30.7888053492602 0.221293272811517 -140.089333826839 0                0                0                0                
                               0                0                0                0                0                0                0                0                
                               0                0                0                0                0.0343992001017928 106.949825079098 0.999408172386215 -91.3060015341816 
                               0                0                0                0                0                0                0                0                
                               0                0                0                0                0.999408172386218 -91.3060015341816 0.0343992001017927 -109.561828147461 
! Gamma         0                624.413941029055 0                624.461648187971 0                624.414582396315 0                624.423808974177 0                624.400972812133 0                624.39195331931  0                624.434069151031 0                624.476691321212 
! Port Impedance         941.132802876412 0                940.982754576894 0                941.106127250622 0                941.11695804617  0                941.170831861291 0                941.164546058849 0                941.069473420065 0                940.996816106941 0                
70.25                          0.198778519327955 36.9013042482023 0.980044437897475 -162.421993523622 0                0                0                0                
                               0                0                0                0                0                0                0                0                
                               0.980044437897484 -162.421993523622 0.198778519327955 178.254708704553 0                0                0                0                
                               0                0                0                0                0                0                0                0                
                               0                0                0                0                0.415228390721142 -105.349828213008 0.90971719975998 142.428669946859 
                               0                0                0                0                0                0                0                0                
                               0                0                0                0                0.909717199759971 142.428669946859 0.415228390721142 -149.792831893273 
                               0                0                0                0                0                0                0                0                
                               0                0                0                0                0                0                0                0                
                               0.221399124100144 4.97036568471038 0.975183279105878 9.58263734153566 0                0                0                0                
                               0                0                0                0                0                0                0                0                
                               0.975183279105874 9.58263734153562 0.221399124100144 -165.805091001639 0                0                0                0                
                               0                0                0                0                0                0                0                0                
                               0                0                0                0                0.0522389271966837 92.2535676755923 0.998634615104713 -104.625341627635 
                               0                0                0                0                0                0                0                0                
                               0                0                0                0                0.998634615104715 -104.625341627635 0.0522389271966836 -121.504250930862 
! Gamma         0                636.627210804956 0                636.674002801671 0                636.627839868027 0                636.636889443021 0                636.614491379675 0                636.605644929237 0                636.646952794385 0                636.688757391984 
! Port Impedance         926.374502181477 0                926.22949573158  0                926.348281024951 0                926.359462127448 0                926.411203652365 0                926.404507871603 0                926.313300462519 0                926.244184550365 0                
70.5                           0.190543222145235 19.1071862516188 0.981678807194344 -179.235377066909 0                0                0                0                
                               0                0                0                0                0                0                0                0                
                               0.981678807194345 -179.235377066909 0.190543222145235 162.422059614564 0                0                0                0                
                               0                0                0                0                0                0                0                0                
                               0                0                0                0                0.390817721249271 -160.929767552784 0.920468092199566 111.956131825024 
                               0                0                0                0                0                0                0                0                
                               0                0                0                0                0.920468092199586 111.956131825024 0.39081772124927 -155.157968797167 
                               0                0                0                0                0                0                0                0                
                               0                0                0                0                0                0                0                0                
                               0.215532936992833 -12.5105963314283 0.976496570946982 -11.3508062993468 0                0                0                0                
                               0                0                0                0                0                0                0                0                
                               0.976496570947012 -11.3508062993468 0.215532936992834 169.808983732735 0                0                0                0                
                               0                0                0                0                0                0                0                0                
                               0                0                0                0                0.0686990664948121 77.75496521616   0.997637428258759 -117.756949169607 
                               0                0                0                0                0                0                0                0                
                               0                0                0                0                0.99763742825875 -117.756949169607 0.0686990664948119 -133.268863555374 
! Gamma         0                648.652872037588 0                648.698796598866 0                648.653489438193 0                648.662371241771 0                648.640388427918 0                648.631705994303 0                648.672248032614 0                648.713277692592 
! Port Impedance         912.435624672866 0                912.295263046722 0                912.409831177407 0                912.421320483657 0                912.47110418309  0                912.464043338856 0                912.376383139915 0                912.310507416558 0                
70.75                          0.178156545062576 1.27808932697141 0.984002157239181 164.098978129177 0                0                0                0                
                               0                0                0                0                0                0                0                0                
                               0.984002157239186 164.098978129177 0.178156545062576 146.919866931383 0                0                0                0                
                               0                0                0                0                0                0                0                0                
                               0                0                0                0                0.413169469188801 144.285093347451 0.910654154841585 81.8996936090831 
                               0                0                0                0                0                0                0                0                
                               0                0                0                0                0.910654154841589 81.8996936090831 0.413169469188801 -160.485706129284 
                               0                0                0                0                0                0                0                0                
                               0                0                0                0                0                0                0                0                
                               0.203396190781774 -30.4023594787439 0.979096516986678 -32.06337898671  0                0                0                0                
                               0                0                0                0                0                0                0                0                
                               0.979096516986699 -32.06337898671  0.203396190781775 146.275601505324 0                0                0                0                
                               0                0                0                0                0                0                0                0                
                               0                0                0                0                0.0837973790692605 63.4514736986105 0.996482814333053 -130.709780127979 
                               0                0                0                0                0                0                0                0                
                               0                0                0                0                0.996482814333055 -130.709780127979 0.0837973790692606 -144.871033954568 
! Gamma         0                660.501172101443 0                660.546272908707 0                660.501778426912 0                660.510500908019 0                660.488912431303 0                660.480385754074 0                660.520200533228 0                660.560494276968 
! Port Impedance         899.245582884576 0                899.109513383316 0                899.220192687526 0                899.231953680532 0                899.279934140205 0                899.272547362041 0                899.188152693324 0                899.125250937614 0                
71                             0.161932901729041 -16.6127048360446 0.98680177104503 147.56254621189  0                0                0                0                
                               0                0                0                0                0                0                0                0                
                               0.986801771045036 147.56254621189  0.161932901729042 131.737797259825 0                0                0                0                
                               0                0                0                0                0                0                0                0                
                               0                0                0                0                0.462336499605058 96.2635265750311 0.886704551207979 52.96391444816   
                               0                0                0                0                0                0                0                0                
                               0                0                0                0                0.886704551207977 52.96391444816   0.462336499605058 -170.335697678711 
                               0                0                0                0                0                0                0                0                
                               0                0                0                0                0                0                0                0                
                               0.185325071125706 -48.3757931040623 0.982677270527946 -52.5977952370177 0                0                0                0                
                               0                0                0                0                0                0                0                0                
                               0.982677270527944 -52.5977952370176 0.185325071125706 123.180202630027 0                0                0                0                
                               0                0                0                0                0                0                0                0                
                               0                0                0                0                0.0975566508709734 49.3356610728346 0.995229973358339 -143.492456205371 
                               0                0                0                0                0                0                0                0                
                               0                0                0                0                0.995229973358337 -143.492456205371 0.0975566508709735 -156.320573483576 
! Gamma         0                672.181489905517 0                672.225807060245 0                672.182085695034 0                672.190656610145 0                672.169443272228 0                672.161064768008 0                672.200187694613 0                672.239781345647 
! Port Impedance         886.741963981977 0                886.609871955648 0                886.716954867617 0                886.728955748144 0                886.775270525263 0                886.767592044089 0                886.686212345634 0                886.626048252951 0                
71.25                          0.142238172198669 -34.6252779948181 0.989832461767942 131.141517913259 0                0                0                0                
                               0                0                0                0                0                0                0                0                
                               0.98983246176794 131.141517913259 0.142238172198668 116.908313821336 0                0                0                0                
                               0                0                0                0                0                0                0                0                
                               0                0                0                0                0.510723700415568 55.0417161176581 0.85974490509327 25.4248499316161 
                               0                0                0                0                0                0                0                0                
                               0                0                0                0                0.859744905093262 25.4248499316161 0.510723700415568 175.807983745574 
                               0                0                0                0                0                0                0                0                
                               0                0                0                0                0                0                0                0                
                               0.162143591318878 -66.0698474610162 0.986767174055876 -72.9833482036152 0                0                0                0                
                               0                0                0                0                0                0                0                0                
                               0.986767174055873 -72.9833482036152 0.162143591318879 100.103151053786 0                0                0                0                
                               0                0                0                0                0                0                0                0                
                               0                0                0                0                0.110003551575591 35.3991303416459 0.993931194117955 -156.113273603648 
                               0                0                0                0                0                0                0                0                
                               0                0                0                0                0.993931194117968 -156.113273603648 0.110003551575591 -167.625677548942 
! Gamma         0                683.702434890546 0                683.746005312984 0                683.703020640535 0                683.711447130764 0                683.690591256429 0                683.682353943503 0                683.720817615157 0                683.759744155292 
! Port Impedance         874.86935396939  0                874.740957601706 0                874.844705615402 0                874.856918589401 0                874.901690576555 0                874.893750453495 0                874.815161957654 0                874.757524938089 0                
71.5                           0.119498035238445 -52.8842210175652 0.992834437141537 114.826933741768 0                0                0                0                
                               0                0                0                0                0                0                0                0                
                               0.992834437141536 114.826933741768 0.119498035238445 102.5380885011   0                0                0                0                
                               0                0                0                0                0                0                0                0                
                               0                0                0                0                0.544026483863529 18.4302130481366 0.839068045426045 -0.865533482318053 
                               0                0                0                0                0                0                0                0                
                               0                0                0                0                0.839068045426045 -0.865533482318053 0.54402648386353 159.838719987227 
                               0                0                0                0                0                0                0                0                
                               0                0                0                0                0                0                0                0                
                               0.135098793106177 -82.9672800802108 0.990832133159422 -93.2342474599127 0                0                0                0                
                               0                0                0                0                0                0                0                0                
                               0.990832133159427 -93.2342474599127 0.135098793106177 76.4987851603855 0                0                0                0                
                               0                0                0                0                0                0                0                0                
                               0                0                0                0                0.121167652189639 21.6333917202151 0.992632056737464 -168.580208862843 
                               0                0                0                0                0                0                0                0                
                               0                0                0                0                0.992632056737466 -168.580208862843 0.121167652189639 -178.793809445902 
! Gamma         0                695.071932002997 0                695.114789775459 0                695.072508171708 0                695.080796829229 0                695.06028210198  0                695.052179535352 0                695.090014043831 0                695.128303919809 
! Port Impedance         863.578362025192 0                863.453407973894 0                863.554055786239 0                863.566456476483 0                863.60979587444  0                863.601620603741 0                863.525622724362 0                863.470324401424 0                
71.75                          0.0942101829357473 -71.6734990088078 0.995552329830639 98.6145678227972 0                0                0                0                
                               0                0                0                0                0                0                0                0                
                               0.995552329830638 98.6145678227972 0.0942101829357471 88.9026346544019 0                0                0                0                
                               0                0                0                0                0                0                0                0                
                               0                0                0                0                0.557957526184548 -15.5852477840956 0.829869507196178 -26.2960190460209 
                               0                0                0                0                0                0                0                0                
                               0                0                0                0                0.82986950719617 -26.2960190460209 0.557957526184547 142.993209692054 
                               0                0                0                0                0                0                0                0                
                               0                0                0                0                0                0                0                0                
                               0.105868362965728 -98.1286016543783 0.994380153524274 -113.350563449375 0                0                0                0                
                               0                0                0                0                0                0                0                0                
                               0.994380153524273 -113.350563449375 0.105868362965728 51.4274747556289 0                0                0                0                
                               0                0                0                0                0                0                0                0                
                               0                0                0                0                0.131080601692155 8.03012907870783 0.991371714272716 179.099077011248 
                               0                0                0                0                0                0                0                0                
                               0                0                0                0                0.991371714272715 179.099077011248 0.131080601692155 170.168024943789 
! Gamma         0                706.297294997612 0                706.339471661574 0                706.297862009137 0                706.306018934662 0                706.285830254469 0                706.277856469685 0                706.31508966326  0                706.352771052113 
! Port Impedance         852.824805933474 0                852.703065664309 0                852.800824655425 0                852.813391612817 0                852.855397586674 0                852.847010597358 0                852.773422899276 0                852.720294175043 0                
72                             0.06697801603912 -91.7832293942792 0.997754451439564 82.5045440491941 0                0                0                0                
                               0                0                0                0                0                0                0                0                
                               0.997754451439562 82.5045440491941 0.0669780160391202 76.7923174926676 0                0                0                0                
                               0                0                0                0                0                0                0                0                
                               0                0                0                0                0.551941231973992 -48.5964457409936 0.833883011247402 -51.3334221771475 
                               0                0                0                0                0                0                0                0                
                               0                0                0                0                0.833883011247399 -51.3334221771475 0.551941231973992 125.929601386699 
                               0                0                0                0                0                0                0                0                
                               0                0                0                0                0                0                0                0                
                               0.0767432636698758 -109.476668861761 0.997050887107222 -133.32148386679 0                0                0                0                
                               0                0                0                0                0                0                0                0                
                               0.997050887107219 -133.32148386679 0.0767432636698761 22.8337011281807 0                0                0                0                
                               0                0                0                0                0                0                0                0                