! Touchstone file exported from HFSS 2022.1.0
!        File:           /home/erdoel/scratch/AFiP/platedesign_afip_wr10.aedt
!        Generated:      12:27:17 PM  Mar 02, 2022
!        Design:         HFSSDesign6
!        Project:        platedesign_afip_wr10
!        Setup:          Setup1
!        Solution:       Sweep
!
! Variables:
!        HL1 = 5.365mm
!        HL2 = 4.95mm
!        M25thread = 1.0335mm
!        M2thread = 0.7835mm
!        chm = 0.9mm
!        chm2 = 0.9mm
!        fil = 0.5mm
!        ht = 3.365mm
!        hwg = 1.27mm
!        mit = 5mm
!        mit2 = 14mm
!        rad2 = 0.785mm
!        radalign1 = 0.835mm
!        radbig = 1.08mm
!        rim = 500um
!        step = 50um
!        th1 = 29.1214718231584deg
!        thgap = 1.5mm
!        wwg = 2.54mm
!        x1 = 5.175mm
!        x2 = 4.55mm
!        xa = 20mm
!        xb1 = 30mm
!        xb2 = 9mm
!        xc = 3mm
!        y0 = 5.175mm
!        y1 = 4.55mm
!        y2 = 0
!        y3 = -5.175mm
!        ya = 15mm
!        yb = -21mm
!        yb1 = -8mm
!        ystep = 0.7mm
!
!Data is not renormalized
# GHz S MA
! Terminal data exported
! Port[1] = rx1in
! Port[2] = rx1out
! Port[3] = rx2in
! Port[4] = rx2out
! Port[5] = tx1in
! Port[6] = tx1out
! Port[7] = tx2in
! Port[8] = tx2out
70                             0.202593498591611 126.21541760057  0.979262924003767 -109.661704158926 0                0                0                0                
                               0                0                0                0                0                0                0                0                
                               0.97926292400377 -109.661704158926 0.202593498591611 -165.538825918423 0                0                0                0                
                               0                0                0                0                0                0                0                0                
                               0                0                0                0                0.471109083318018 15.8735427930138 0.882074958047933 28.2911101921953 
                               0                0                0                0                0                0                0                0                
                               0                0                0                0                0.882074958047925 28.2911101921953 0.471109083318019 -139.291322408623 
                               0                0                0                0                0                0                0                0                
                               0                0                0                0                0                0                0                0                
                               0.221293272811572 93.2180254573515 0.97520730483746 66.5643458152582 0                0                0                0                
                               0                0                0                0                0                0                0                0                
                               0.975207304837461 66.5643458152582 0.221293272811571 -140.089333826835 0                0                0                0                
                               0                0                0                0                0                0                0                0                
                               0                0                0                0                0.0343992001018149 178.504698572159 0.999408172386217 124.47143521235  
                               0                0                0                0                0                0                0                0                
                               0                0                0                0                0.999408172386213 124.47143521235  0.0343992001018149 -109.561828147459 
! Gamma         0                624.413941029055 0                624.461648187971 0                624.414582396315 0                624.423808974177 0                624.400972812133 0                624.39195331931  0                624.434069151031 0                624.476691321212 
! Port Impedance         542.564152454107 0                542.535191984588 0                542.56178535778  0                542.480060251048 0                542.49581316117  0                542.518121027325 0                542.518768506592 0                542.487436056739 0                
70.25                          0.198778519327961 109.853408852816 0.980044437897479 -125.945941221312 0                0                0                0                
                               0                0                0                0                0                0                0                0                
                               0.980044437897478 -125.945941221312 0.198778519327961 178.25470870456  0                0                0                0                
                               0                0                0                0                0                0                0                0                
                               0                0                0                0                0.415228390721165 -32.3976515230801 0.909717199759958 -1.095241708176  
                               0                0                0                0                0                0                0                0                
                               0                0                0                0                0.909717199759972 -1.09524170817599 0.415228390721165 -149.792831893272 
                               0                0                0                0                0                0                0                0                
                               0                0                0                0                0                0                0                0                
                               0.221399124100154 77.9210127505615 0.975183279105875 46.0579608744584 0                0                0                0                
                               0                0                0                0                0                0                0                0                
                               0.975183279105873 46.0579608744584 0.221399124100154 -165.805091001645 0                0                0                0                
                               0                0                0                0                0                0                0                0                
                               0                0                0                0                0.0522389271966918 165.207934545563 0.998634615104714 111.851841807348 
                               0                0                0                0                0                0                0                0                
                               0                0                0                0                0.998634615104714 111.851841807348 0.0522389271966919 -121.504250930867 
! Gamma         0                636.627210804955 0                636.674002801671 0                636.627839868029 0                636.636889443018 0                636.614491379674 0                636.605644929236 0                636.646952794384 0                636.688757391987 
! Port Impedance         534.048343795133 0                534.020224888206 0                534.046355519694 0                533.967177823682 0                533.983303006683 0                534.004252708437 0                534.005113816599 0                533.974271505729 0                
70.5                           0.190543222145235 93.4373301251994 0.981678807194346 -142.070305130115 0                0                0                0                
                               0                0                0                0                0                0                0                0                
                               0.981678807194344 -142.070305130115 0.190543222145235 162.42205961457  0                0                0                0                
                               0                0                0                0                0                0                0                0                
                               0                0                0                0                0.390817721248798 -86.5995529303531 0.920468092199776 -30.8787608637516 
                               0                0                0                0                0                0                0                0                
                               0                0                0                0                0.920468092199777 -30.8787608637515 0.390817721248798 -155.15796879715 
                               0                0                0                0                0                0                0                0                
                               0                0                0                0                0                0                0                0                
                               0.215532936992826 61.8181170258585 0.976496570946999 25.8135503792979 0                0                0                0                
                               0                0                0                0                0                0                0                0                
                               0.976496570946998 25.813550379298  0.215532936992826 169.808983732737 0                0                0                0                
                               0                0                0                0                0                0                0                0                
                               0                0                0                0                0.0686990664948392 152.087329415213 0.99763742825875 99.4092329299241 
                               0                0                0                0                0                0                0                0                
                               0                0                0                0                0.997637428258755 99.4092329299241 0.0686990664948392 -133.268863555365 
! Gamma         0                648.652872037587 0                648.698796598865 0                648.653489438191 0                648.662371241773 0                648.640388427918 0                648.631705994304 0                648.672248032616 0                648.713277692591 
! Port Impedance         526.005689909129 0                525.978348936885 0                526.004044513949 0                525.927217574165 0                525.943667352855 0                525.963378274967 0                525.964431390354 0                525.934052056823 0                
70.75                          0.178156545062579 76.9659483766828 0.984002157239183 -158.057092345968 0                0                0                0                
                               0                0                0                0                0                0                0                0                
                               0.984002157239182 -158.057092345968 0.178156545062579 146.919866931381 0                0                0                0                
                               0                0                0                0                0                0                0                0                
                               0                0                0                0                0.413169469188826 -140.026978123048 0.910654154841575 -60.2563421261678 
                               0                0                0                0                0                0                0                0                
                               0                0                0                0                0.910654154841577 -60.2563421261678 0.413169469188826 -160.485706129287 
                               0                0                0                0                0                0                0                0                
                               0                0                0                0                0                0                0                0                
                               0.203396190781774 45.2840947162612 0.979096516986669 5.77984811079229 0                0                0                0                
                               0                0                0                0                0                0                0                0                
                               0.979096516986707 5.77984811079229 0.203396190781774 146.275601505324 0                0                0                0                
                               0                0                0                0                0                0                0                0                
                               0                0                0                0                0.0837973790692592 139.141513245991 0.996482814333054 87.1352396457106 
                               0                0                0                0                0                0                0                0                
                               0                0                0                0                0.996482814333052 87.1352396457106 0.0837973790692593 -144.871033954569 
! Gamma         0                660.501172101444 0                660.546272908707 0                660.501778426912 0                660.51050090802  0                660.488912431303 0                660.480385754073 0                660.52020053323  0                660.560494276968 
! Port Impedance         518.395403093534 0                518.368783373013 0                518.394069025113 0                518.319417908899 0                518.336151051512 0                518.354728486962 0                518.355954695616 0                518.326013513037 0                
71                             0.161932901728891 60.4136200407039 0.986801771045056 -173.92429134972 0                0                0                0                
                               0                0                0                0                0                0                0                0                
                               0.986801771045058 -173.92429134972 0.161932901728891 131.737797259856 0                0                0                0                
                               0                0                0                0                0                0                0                0                
                               0                0                0                0                0.462336499605071 173.289919724285 0.886704551207981 -88.5228889772155 
                               0                0                0                0                0                0                0                0                
                               0                0                0                0                0.886704551207964 -88.5228889772155 0.462336499605071 -170.335697678716 
                               0                0                0                0                0                0                0                0                
                               0                0                0                0                0                0                0                0                
                               0.185325071125687 28.6491513302411 0.982677270527941 -14.0853230198613 0                0                0                0                
                               0                0                0                0                0                0                0                0                
                               0.982677270527956 -14.0853230198613 0.185325071125686 123.180202630036 0                0                0                0                
                               0                0                0                0                0                0                0                0                
                               0                0                0                0                0.0975566508709755 126.364128558443 0.995229973358338 75.0217775374324 
                               0                0                0                0                0                0                0                0                
                               0                0                0                0                0.995229973358338 75.0217775374324 0.0975566508709756 -156.320573483578 
! Gamma         0                672.181489905517 0                672.225807060245 0                672.182085695034 0                672.190656610145 0                672.169443272228 0                672.161064768008 0                672.200187694613 0                672.239781345647 
! Port Impedance         511.181422467369 0                511.155473290553 0                511.180371905121 0                511.107740344853 0                511.124721053971 0                511.142258266834 0                511.143640953287 0                511.114115160591 0                
71.25                          0.142238172198574 43.721249929219  0.989832461767964 170.314781875297 0                0                0                0                
                               0                0                0                0                0                0                0                0                
                               0.989832461767944 170.314781875297 0.142238172198575 116.908313821375 0                0                0                0                
                               0                0                0                0                0                0                0                0                
                               0                0                0                0                0.510723700415565 133.388311163755 0.859744905093264 -115.401852545335 
                               0                0                0                0                0                0                0                0                
                               0                0                0                0                0.85974490509327 -115.401852545335 0.510723700415566 175.807983745575 
                               0                0                0                0                0                0                0                0                
                               0                0                0                0                0                0                0                0                
                               0.162143591318858 12.2753232825066 0.986767174055879 -33.8107628318281 0                0                0                0                
                               0                0                0                0                0                0                0                0                
                               0.986767174055876 -33.8107628318281 0.162143591318858 100.103151053837 0                0                0                0                
                               0                0                0                0                0                0                0                0                
                               0                0                0                0                0.110003551575598 113.7477647708   0.993931194117948 63.0610436109326 
                               0                0                0                0                0                0                0                0                
                               0                0                0                0                0.993931194117973 63.0610436109326 0.110003551575599 -167.625677548935 
! Gamma         0                683.702434890547 0                683.746005312984 0                683.703020640534 0                683.711447130763 0                683.690591256428 0                683.682353943504 0                683.720817615157 0                683.759744155293 
! Port Impedance         504.331733636848 0                504.306409463359 0                504.330941953438 0                504.260189805073 0                504.277386888995 0                504.29396682035  0                504.295491330612 0                504.266360000887 0                
71.5                           0.119498035238441 26.7651553059844 0.992834437141537 154.651621903543 0                0                0                0                
                               0                0                0                0                0                0                0                0                
                               0.992834437141536 154.651621903543 0.119498035238441 102.538088501102 0                0                0                0                
                               0                0                0                0                0                0                0                0                
                               0                0                0                0                0.544026483863475 98.0796553957494 0.839068045426082 -141.04081230851 
                               0                0                0                0                0                0                0                0                
                               0                0                0                0                0.83906804542608 -141.04081230851 0.544026483863474 159.83871998723  
                               0                0                0                0                0                0                0                0                
                               0                0                0                0                0                0                0                0                
                               0.135098793106166 -3.31923873698556 0.990832133159439 -53.4102267882966 0                0                0                0                
                               0                0                0                0                0                0                0                0                
                               0.990832133159411 -53.4102267882966 0.135098793106166 76.4987851603924 0                0                0                0                
                               0                0                0                0                0                0                0                0                
                               0                0                0                0                0.121167652189632 101.284840093016 0.992632056737461 51.2455153235579 
                               0                0                0                0                0                0                0                0                
                               0                0                0                0                0.992632056737472 51.2455153235579 0.121167652189632 -178.7938094459  
! Gamma         0                695.071932002996 0                695.114789775457 0                695.07250817171  0                695.080796829228 0                695.060282101977 0                695.052179535352 0                695.09001404383  0                695.128303919809 
! Port Impedance         497.817804233636 0                497.793064014607 0                497.817249546911 0                497.748250663729 0                497.765636853074 0                497.781333540673 0                497.782986902976 0                497.754230744442 0                
71.75                          0.0942101829357542 9.26220916093203 0.995552329830636 139.082421907665 0                0                0                0                
                               0                0                0                0                0                0                0                0                
                               0.995552329830641 139.082421907665 0.0942101829357543 88.9026346543972 0                0                0                0                
                               0                0                0                0                0                0                0                0                
                               0                0                0                0                0.557957526184508 65.3505253603682 0.8298695071962  -165.828132473787 
                               0                0                0                0                0                0                0                0                
                               0                0                0                0                0.829869507196201 -165.828132473787 0.557957526184508 142.993209692057 
                               0                0                0                0                0                0                0                0                
                               0                0                0                0                0                0                0                0                
                               0.105868362965714 -17.1942072474255 0.994380153524275 -72.8833662459033 0                0                0                0                
                               0                0                0                0                0                0                0                0                
                               0.994380153524275 -72.8833662459033 0.105868362965715 51.4274747556189 0                0                0                0                
                               0                0                0                0                0                0                0                0                
                               0                0                0                0                0.131080601692151 88.9678763669194 0.991371714272717 39.5679506553571 
                               0                0                0                0                0                0                0                0                
                               0                0                0                0                0.991371714272715 39.5679506553571 0.131080601692151 170.168024943795 
! Gamma         0                706.297294997613 0                706.339471661572 0                706.297862009135 0                706.306018934664 0                706.285830254469 0                706.277856469684 0                706.31508966326  0                706.352771052111 
! Port Impedance         491.614112712672 0                491.589919321132 0                491.613775511564 0                491.546415954634 0                491.563967335465 0                491.578847102191 0                491.580617794195 0                491.552218978078 0                
72                             0.0669780160390771 -9.57693059435424 0.997754451439571 123.607693449145 0                0                0                0                
                               0                0                0                0                0                0                0                0                
                               0.997754451439561 123.607693449145 0.066978016039077 76.7923174926451 0                0                0                0                
                               0                0                0                0                0                0                0                0                
                               0                0                0                0                0.551941231973999 33.6099170293932 0.833883011247395 169.769759208046 
                               0                0                0                0                0                0                0                0                
                               0                0                0                0                0.833883011247396 169.769759208046 0.551941231973999 125.929601386699 
                               0                0                0                0                0                0                0                0                
                               0                0                0                0                0                0                0                0                
                               0.076743263669857 -27.2716635186249 0.997050887107219 -92.218981195232 0                0                0                0                
                               0                0                0                0                0                0                0                0                
                               0.997050887107225 -92.218981195232 0.0767432636698572 22.8337011281608 0                0                0                0                
                               0                0                0                0                0                0                0                0                