! Touchstone file exported from HFSS 2020.2.0
!        File:           /home/erdoel/scratch/Other/CoaxWG.aedt
!        Generated:      12:00:56 PM  Oct 13, 2021
!        Design:         HFSSDesign2
!        Project:        CoaxWG
!        Setup:          Setup1
!        Solution:       Sweep
!
! Variables:
!        length = 1mm
!        th = 0.05mm
!        w = 0.2mm
!
# GHZ S MA R 50.000000
! Terminal data exported
! Port[1] = 1
! Port[2] = 2
1                              0.0177950035454545 83.069439592872  0.9996551954194  178.425205013206 0.9996551954194  178.425205013206 0.0176054651255071 92.6742407080877 
! Gamma         0.106938665141216 21.0755280355261 0.103829677701408 21.0702500398888 
! Port Impedance         50               0                50               0                
2                              0.0352570151762863 83.9899501682315 0.999115932578808 176.857823180868 0.999115932578807 176.857823180868 0.0351007116468138 88.9232943754846 
! Gamma         0.155457570049784 42.0839141337563 0.150173005803585 42.0759965066988 
! Port Impedance         50               0                50               0                
3                              0.0526794632223052 83.3008009169649 0.998291371216099 175.293474283354 0.998291371216099 175.293474283354 0.052542462647468 86.6291323903596 
! Gamma         0.192973089781125 63.0805934125826 0.185923090916596 63.070667903273  
! Port Impedance         50               0                50               0                
4                              0.0700291886979134 82.1915770682576 0.997176578540628 173.732590828235 0.997176578540629 173.732590828235 0.0699054413626085 84.704812766574  
! Gamma         0.224705802233566 84.0712291381945 0.216130706327123 84.0596219107056 
! Port Impedance         50               0                50               0                
5                              0.0872822545542746 80.9123037262542 0.995773187914106 172.175897219132 0.995773187914106 172.175897219132 0.0871684485787606 82.9313367807953 
! Gamma         0.252715833030008 105.058010633944 0.242778374761004 105.044928684753 
! Port Impedance         50               0                50               0                
6                              0.104416461282853 79.5491275595001 0.994085675998058 170.624192887185 0.994085675998059 170.624192887185 0.104310539589293 81.2360450034898 
! Gamma         0.278069858547479 126.042058510905 0.266889655115666 126.027647933476 
! Port Impedance         50               0                50               0                
7                              0.121410514857834 78.1401469559487 0.992120379104083 169.078293420426 0.992120379104083 169.078293420426 0.121311092474233 79.5882592718092 
! Gamma         0.301405325193551 147.024037389027 0.289075103409914 147.008408282616 
! Port Impedance         50               0                50               0                
8                              0.138243953688481 76.7050936764262 0.989885087118504 167.539006360019 0.989885087118504 167.539006360019 0.138150044068734 77.9730552641468 
! Gamma         0.323139283422457 168.00437973623  0.309733660783962 167.987618866952 
! Port Impedance         50               0                50               0                
9                              0.154897211396691 75.2554003060689 0.987388813836677 166.007118367418 0.987388813836678 166.007118367418 0.154808081734736 76.3824947165172 
! Gamma         0.343562299712339 188.983385620392 0.329143009484688 188.965563623035 
! Port Impedance         50               0                50               0                
10                             0.171351702118602 73.798281320308  0.984641632342525 164.483387162795 0.984641632342524 164.483387162795 0.171266790088402 74.8121118682374 
! Gamma         0.362886429655942 209.961273322122 0.347505650519473 209.942449134596 
! Port Impedance         50               0                50               0                
11                             0.187589901319737 72.3386079143637 0.981654537170363 162.9685358876   0.981654537170362 162.9685358876   0.187508763982558 73.2593141461589 
! Gamma         0.381272055825161 230.938207498644 0.36497464889377 230.91843126275  
! Port Impedance         50               0                50               0                
12                             0.203595414633367 70.8798534989303 0.978439318485976 161.463248920158 0.978439318485975 161.463248920158 0.203517695471221 71.7225814426521 
! Gamma         0.398843968263685 251.914315988611 0.381669042787066 251.893631033996 
! Port Impedance         50               0                50               0                
13                             0.219353032596913 69.4246063997013 0.975008442397113 159.968168694435 0.975008442397113 159.968168694435 0.219278439360022 70.2010343563126 
! Gamma         0.415701530841337 272.889700396834 0.397683577449618 272.868144652432 
! Port Impedance         50               0                50               0                
14                             0.234848770897429 67.9748645614742 0.97137493523716 158.483893290985 0.971374935237161 158.483893290985 0.234777060214295 68.6941871391037 
! Gamma         0.431925392911137 293.864443062792 0.413095126966921 293.84205009063  
! Port Impedance         50               0                50               0                
15                             0.250069896415093 66.5322133226569 0.967552271348283 157.010974669452 0.967552271348283 157.010974669452 0.250000862798389 67.2017993274479 
! Gamma         0.44758208155682 314.838611816183 0.427967085420348 314.815411587407 
! Port Impedance         50               0                50               0                
16                             0.265004939700639 65.0979371549811 0.963554264658448 155.549917458814 0.963554264658447 155.549917458814 0.264938407506209 65.7237830356272 
! Gamma         0.462727238983878 335.812263321395 0.442352460926099 335.788282813201 
! Port Impedance         50               0                50               0                
17                             0.279643694722364 63.6730924768585 0.959394964678256 154.101178245155 0.959394964678256 154.101178245155 0.279579512147855 64.2601431323497 
! Gamma         0.477407963932424 356.785445492858 0.456296112506455 356.76070915461  
! Port Impedance         50               0                50               0                
18                             0.293977206875542 62.2585566827988 0.955088557644477 152.665165307466 0.955088557644477 152.665165307466 0.293915241402677 62.8109376330084 
! Gamma         0.49166454280808 377.758199276294 0.46983640312464 377.732729400677 
! Port Impedance         50               0                50               0                
19                             0.307997750349026 60.8550621881748 0.950649273518217 151.242238757648 0.950649273518217 151.242238757648 0.30793788522968 61.376250966788  
! Gamma         0.5055317542153  398.730559990574 0.483006445034882 398.704377012402 
! Port Impedance         50               0                50               0                
20                             0.321698796020039 59.4632207827769 0.946091299458092 149.832711043198 0.946091299458093 149.832711043198 0.321640927530742 59.9561757018261 
! Gamma         0.519039868937013 419.70255835349  0.495835054026308 419.675681093987 
! Port Impedance         50               0                50               0                
21                             0.335074971089677 58.0835415722655 0.941428700266821 148.436847772488 0.941428700266821 148.436847772488 0.33501900636138 58.5507999824331 
! Gamma         0.532215427818577 440.67422127988  0.508347491692142 440.646667147754 
! Port Impedance         50               0                50               0                
22                             0.348122011687966 56.7164445900657 0.93667534617067 147.054868823024 0.936675346170672 147.054868823024 0.348067866972941 57.1601989185672 
! Gamma         0.545081855251174 461.645572509448 0.520566050423621 461.617357669164 
! Port Impedance         50               0                50               0                
23                             0.360836709661174 55.3622714311981 0.93184484815087 145.686949694384 0.931844848150871 145.686949694384 0.360784308936255 55.7844287689281 
! Gamma         0.55765994860517 482.61663310779  0.532510520206809 482.587772620805 
! Port Impedance         50               0                50               0                
24                             0.373216854722082 54.0212938009599 0.926950500908296 144.333223068116 0.926950500908296 144.333223068116 0.373166128553542 54.4235231338485 
! Gamma         0.569968273080697 503.587421869802 0.544198565096862 503.557929814326 
! Port Impedance         50               0                50               0                
25                             0.385261173087837 52.6937205778301 0.922005233416134 142.993780538558 0.922005233416134 142.993780538558 0.3852120577023  53.0774906149895 
! Gamma         0.582023483436407 524.557955648185 0.555646029851692 524.527845221614 
! Port Impedance         50               0                50               0                
26                             0.396969263657829 51.379703797909  0.917021566903086 141.668674480253 0.917021566903086 141.668674480253 0.396921700176658 51.7463135570919 
! Gamma         0.593840588351025 545.528249623577 0.566867191897017 545.497533230593 
! Port Impedance         50               0                50               0                
27                             0.408341532702688 50.079343839907  0.912011580011542 140.357920019501 0.912011580011542 140.357920019501 0.408295466507141 50.429947593348  
! Gamma         0.605433169593702 566.498317527664 0.577874970202474 566.467006856244 
! Port Impedance         50               0                50               0                
28                             0.419379127943212 48.792694004622  0.906986880794661 139.061497080106 0.906986880794661 139.061497080106 0.419334508145226 49.1283217884534 
! Gamma         0.616813565038992 587.468171829667 0.588681099590533 587.436277917812 
! Port Impedance         50               0                50               0                
29                             0.430083872801855 47.5197646233948 0.901958585152137 137.77935247563  0.901958585152137 137.77935247563  0.430040651800406 47.8413392248051 
! Gamma         0.627993022527755 608.437823893279 0.599296277383917 608.405357186817 
! Port Impedance         50               0                50               0                
30                             0.440458201510141 46.260526790209  0.896937301256366 136.511402023336 0.896937301256366 136.511402023336 0.440416334617557 46.5688779140195 
! Gamma         0.638981830121466 629.407284109163 0.60973028742712 629.374254512823 
! Port Impedance         50               0                50               0                
31                             0.450505095658686 45.0149157841378 0.891933119487057 135.257532657399 0.891933119487057 135.257532657399 0.45046454078448 45.3107919421669 
! Gamma         0.649789426999099 650.376562007651 0.619992105714062 650.342978930134 
! Port Impedance         50               0                50               0                
32                             0.4602280226807  43.7828342292228 0.886955607372823 134.017604521882 0.886955607372824 134.017604521882 0.460188740062694 44.0669127779363 
! Gamma         0.660424498379359 671.345666355256 0.630089990794262 671.311538749369 
! Port Impedance         50               0                50               0                
33                             0.469630876668809 42.564155025774  0.882013809030912 132.791453026405 0.882013809030912 132.791453026405 0.469592828643582 42.8370506873375 
! Gamma         0.670895057262774 692.31460523775  0.640031561591937 692.279941636034 
! Port Impedance         50               0                50               0                
34                             0.478717921842257 41.3587240775509 0.877116248597817 131.578890850094 0.877116248597817 131.578890850094 0.478681072648253 41.6209962108137 
! Gamma         0.681208515068149 713.283386132002 0.649823864661615 713.248194678553 
! Port Impedance         50               0                50               0                
35                             0.48749373890078 40.1663628328683 0.87227093715625 130.379709881722 0.872270937156249 130.379709881722 0.487458054508661 40.4185216677125 
! Gamma         0.691371743034082 734.252015968321 0.65947343266526 734.216304447305 
! Port Impedance         50               0                50               0                
36                             0.495963174434067 38.9868706534147 0.867485382680644 129.193683086237 0.867485382680644 129.193683086237 0.495928622399948 39.2293826603981 
! Gamma         0.701391125792104 755.220501184606 0.668986335336462 755.184277046057 
! Port Impedance         50               0                50               0                
37                             0.504131293491045 37.8200270214113 0.862766602548021 128.020566289916 0.862766602548021 128.020566289916 0.504097842828931 38.0533195563405 
! Gamma         0.711272608272522 776.188847774211 0.678368224157838 776.152118157257 
! Port Impedance         50               0                50               0                
38                             0.512003335358554 36.6655935939513 0.858121138188746 126.860099878301 0.858121138188746 126.860099878301 0.511970956428946 36.8900589312852 
! Gamma         0.721021736979836 797.157061327538 0.687624371628004 797.11983308149  
! Port Impedance         50               0                50               0                
39                             0.51958467255209 35.5233161119529 0.853555071481882 125.712010402741 0.853555071481881 125.712010402741 0.519553336964278 35.7393149606303 
! Gamma         0.73064369639609 818.125147069211 0.696759705911344 818.087426772475 
! Port Impedance         50               0                50               0                
40                             0.526880772980919 34.3929261704899 0.849074042532262 124.576012092919 0.849074042532262 124.576012092919 0.526850453506868 34.600790749351  
! Gamma         0.740143341222996 839.093109890594 0.705778841535074 839.054903868146 
! Port Impedance         50               0                50               0                
41                             0.533897165215762 33.274142856617  0.844683268499876 123.451808273987 0.844683268499876 123.451808273987 0.53386783571385 33.4741795935548 
! Gamma         0.749525225033314 860.060954378726 0.714686106626617 860.022268718039 
! Port Impedance         50               0                50               0                
42                             0.540639406761125 32.1666742607391 0.840387563184564 122.339092688175 0.840387563184563 122.339092688175 0.540611042108259 32.3591661689054 
! Gamma         0.758793625773995 881.028684842426 0.723485567207367 880.989525407822 
! Port Impedance         50               0                50               0                
43                             0.547113055212693 31.0702188671962 0.836191357101472 121.237550721645 0.836191357101472 121.237550721645 0.547085631243611 31.2554276431092 
! Gamma         0.767952568589924 901.996305335077 0.732181048888749 901.956677781091 
! Port Impedance         50               0                50               0                
44                             0.553323642163437 29.984466829864  0.832098717814298 120.146860538201 0.832098717814298 120.146860538201 0.553297135616126 30.1626347109596 
! Gamma         0.777005846243654 922.963819675633 0.740776156311083 922.923729459216 
! Port Impedance         50               0                50               0                
45                             0.559276649710688 28.9091011383574 0.828113370322634 119.066694122161 0.828113370322633 119.066694122161 0.559251038177079 29.0804525518435 
! Gamma         0.785957037484977 943.931231466825 0.749274290623329 943.890683858629 
! Port Impedance         50               0                50               0                
46                             0.564977489409201 27.8437986805625 0.824238717327217 117.996718233209 0.824238717327218 117.996718233209 0.564952751290412 28.0085417104303 
! Gamma         0.794809523574405 964.898544112286 0.757678665187686 964.857544206948 
! Port Impedance         50               0                50               0                
47                             0.570431483509145 26.7882312069193 0.82047785922373 116.936595276503 0.82047785922373 116.936595276503 0.570407597974622 26.9465589022222 
! Gamma         0.803566503226765 985.865760831344 0.765992319804417 985.824313557132 
! Port Impedance         50               0                50               0                
48                             0.575643848318531 25.7420662022056 0.816833613698057 115.885984091613 0.816833613698057 115.885984091613 0.575620795268603 25.8941577459765 
! Gamma         0.812231006106692 1006.83288467281 0.774218133552984 1006.79099480044 
! Port Impedance         50               0                50               0                
49                             0.58061967952838 24.7049676700423 0.813308534818826 114.844540664126 0.813308534818826 114.844540664126 0.580597439559745 24.8509894258467 
! Gamma         0.820805905078249 1027.79991852742 0.782358836435814 1027.75759067819 
! Port Impedance         50               0                50               0                
50                             0.585363939343269 23.6765968356393 0.809904931541313 113.811918763867 0.809904931541313 113.811918763867 0.585342493717073 23.8167032860335 
! Gamma         0.829293927349111 1048.76686513892 0.790417019974933 1048.72410379252 
! Port Impedance         50               0                50               0                
51                             0.58988144526302 22.6566127719    0.806624885555035 112.787770513811 0.806624885555036 112.787770513811 0.589860775875163 22.7909473613132 
! Gamma         0.837697664582111 1069.73372711445 0.798395146850561 1069.69053661592 
! Port Impedance         50               0                50               0                
52                             0.594176860367474 21.644672953961  0.803470268422098 111.771746893762 0.803470268422097 111.771746893762 0.594156949720908 21.7733688467566 
! Gamma         0.846019582167792 1090.70050693379 0.806295559684383 1090.65689150021 
! Port Impedance         50               0                50               0                
53                             0.598254684962788 20.6404337471102 0.800442757966831 110.763498182873 0.80044275796683 110.763498182873 0.598235516141548 20.7636145101388 
! Gamma         0.85426202765809 1111.66720695803 0.814120489096296 1111.62317068456 
! Port Impedance         50               0                50               0                
54                             0.602119249453909 19.6435508327777 0.797543853889511 109.762674344988 0.797543853889511 109.762674344988 0.602100806098682 19.7613310504784 
! Gamma         0.862427238505946 1132.63382943723 0.821872061038492 1132.58937630303 
! Port Impedance         50               0                50               0                
55                             0.60577470831671 18.6536795771077 0.794774892585993 108.768925360758 0.794774892585993 108.768925360758 0.605756974601773 18.7661654062962 
! Gamma         0.870517349167841 1153.60037651767 0.829552303567596 1153.55551039109 
! Port Impedance         50               0                50               0                
56                             0.609225035050017 17.6704753465038 0.792137061164386 107.781901510302 0.792137061164387 107.781901510302 0.60920799566139 17.7777650168977 
! Gamma         0.87853439761578 1174.56685024844 0.837163153019085 1174.52157489224 
! Port Impedance         50               0                50               0                
57                             0.612474017996024 16.6935937741851 0.78963141065668 106.801253610084 0.789631410656679 106.801253610084 0.612457658110699 16.79577804013   
! Gamma         0.886480331335004 1195.53325258745 0.844706459732765 1195.48757166338 
! Port Impedance         50               0                50               0                
58                             0.615525256925271 15.722690981741  0.787258868429302 105.826633207546 0.787258868429302 105.826633207546 0.615509562191436 15.8198535297962 
! Gamma         0.894357012855983 1216.49958540706 0.852183993288374 1216.45350248038 
! Port Impedance         50               0                50               0                
59                             0.618382160290689 14.7574237593464 0.785020249800877 104.857692736816 0.785020249800877 104.857692736816 0.618367116808811 14.8496415758601 
! Gamma         0.902166224849429 1237.46585049916 0.859597447375024 1237.41936904277 
! Port Impedance         50               0                50               0                
60                             0.621047943061672 13.7974497081544 0.782916268879991 103.894085638751 0.78291626887999 103.894085638751 0.621033537366377 13.8847934104822 
! Gamma         0.909909674841252 1258.43204957996 0.866948444250731 1258.38517297836 
! Port Impedance         50               0                50               0                
61                             0.623525625057512 12.8424273481811 0.780947548637929 102.935466448293 0.78094754863793 102.935466448293 0.62351184410017 12.9249614826477 
! Gamma         0.917588999572573 1279.39818429443 0.874238538907693 1279.35091584732 
! Port Impedance         50               0                50               0                
62                             0.625818029705929 11.8920161947493 0.779114630233778 101.981490852063 0.779114630233777 101.981490852063 0.625804860837897 11.9697995042469 
! Gamma         0.925205769045681 1300.3642562203  0.881469222899372 1300.31659914614 
! Port Impedance         50               0                50               0                
63                             0.627927783159069 10.9458768064697 0.777417981610842 101.031815718873 0.777417981610842 101.031815718873 0.627915214115515 11.0189624700236 
! Gamma         0.932761490263139 1321.33026687195 0.888641927916996 1321.28222431117 
! Port Impedance         50               0                50               0                
64                             0.629857313706084 10.0036708074506 0.77585800538374 100.08609910575  0.77585800538374 100.08609910575  0.62984533259034 10.0721066539906 
! Gamma         0.940257610722142 1342.29621770373 0.895758029093589 1342.24779272194 
! Port Impedance         50               0                50               0                
65                             0.631608851427036 9.06506088635446 0.774435046036204 99.1440002418688 0.774435046036204 99.1440002418688 0.631597446695424 9.12888958450549 
! Gamma         0.947695521644606 1363.26211011348 0.902818848086731 1363.21330570433 
! Port Impedance         50               0                50               0                
66                             0.633184428038547 8.1297107746958  0.773149396449435 98.2051794926762 0.773149396449435 98.2051794926762 0.633173588485666 8.18897000025994 
! Gamma         0.955076560999477 1384.22794544537 0.909825655939768 1384.17876453323 
! Port Impedance         50               0                50               0                
67                             0.634585876887459 7.19728520667626 0.772001303779909 97.26929830635   0.772001303779909 97.26929830635   0.634575591631833 7.25200778920454 
! Gamma         0.962402016309569 1405.19372499279 0.916779675764971 1405.14417043559 
! Port Impedance         50               0                50               0                
68                             0.635814833052724 6.26744986269764 0.770990974705574 96.3360191446268 0.770990974705574 96.3360191446268 0.635805091522826 6.31766391237999 
! Gamma         0.969673127274808 1426.15945000108 0.923682085225864 1426.10952459255 
! Port Impedance         50               0                50               0                
69                             0.636872733521859 5.33987129856929 0.770118580057135 95.4050053999035 0.770118580057135 95.4050053999035 0.636863525442444 5.38560031450008 
! Gamma         0.976891088224559 1447.12512166987 0.930534018871855 1447.07482814207 
! Port Impedance         50               0                50               0                
70                             0.637760817411381 4.41421686232348 0.769384258850843 94.4759213004251 0.769384258850843 94.4759213004251 0.637752132790096 4.45547982303037 
! Gamma         0.984057050412117 1468.09074115547 0.937336570318132 1468.04008218096 
! Port Impedance         50               0                50               0                
71                             0.63848012620597 3.49015460048954 0.768788121736803 93.5484318053091 0.768788121736802 93.5484318053091 0.638471955320223 3.52696603745549 
! Gamma         0.991172124150411 1489.05630957296 0.944090794278749 1489.00528776701 
! Port Impedance         50               0                50               0                
72                             0.639031503994232 2.56735315550631 0.768330253875768 92.622202491002  0.768330253875768 92.622202491002  0.639023837378254 2.59972321028535 
! Gamma         0.998237380827308 1510.02182799833 0.950797708479987 1509.97044592081 
! Port Impedance         50               0                50               0                
73                             0.639415597683349 1.64548165599329 0.768010717255063 91.6968994308156 0.768010717255063 91.6968994308156 0.639408426115456 1.67341612140989 
! Gamma         1.00525385479079 1530.98729747031 0.957458295453342 1530.93555762769 
! Port Impedance         50               0                50               0                
74                             0.639632857178093 0.72420960144198 0.767829552452724 90.7721890690026 0.767829552452724 90.7721890690026 0.639626171668077 0.747709947204724 
! Gamma         1.01222254511482 1551.95271899209 0.964073504210553 1551.90062383927 
! Port Impedance         50               0                50               0                
75                             0.639683535513426 -0.196793257059178 0.76778677985665 89.8477380909025 0.76778677985665 89.8477380909025 0.639677327290086 -0.177729874130073 
! Gamma         1.01914441725921 1572.91809353311 0.970644251827409 1572.86564547516 
! Port Impedance         50               0                50               0                
76                             0.639567688933189 -1.1178570386063 0.767882400343735 88.9232132905814 0.767882400343736 88.9232132905814 0.639561949431908 -1.10323777956868 
! Gamma         1.02602040463586 1593.88342203055 0.97717142492811 1593.83062342437 
! Port Impedance         50               0                50               0                
77                             0.639285176910808 -2.03931185520297 0.768116395421541 87.9982814373981 0.768116395421541 87.9982814373981 0.639279897761218 -2.02914821925153 
! Gamma         1.03285141007889 1614.84870539088 0.983655881079908 1614.79555854676 
! Port Impedance         50               0                50               0                
78                             0.638835662110983 -2.9614879339558 0.768488726833339 87.0726091429246 0.768488726833339 87.0726091429246 0.638830835124614 -2.95579579404199 
! Gamma         1.03963830722251 1635.81394449117 0.990098450112951 1635.76045167434 
! Port Impedance         50               0                50               0                
79                             0.638218610294929 -3.88471573721584 0.768999335624809 86.1458627296413 0.76899933562481 86.1458627296413 0.638214227452855 -3.88351539128542 
! Gamma         1.04638194181445 1656.77914018048 0.996499935355039 1656.72530361256 
! Port Impedance         50               0                50               0                
80                             0.63743329017465 -4.80932607919273 0.769648140668935 85.2177081028207 0.769648140668935 85.2177081028207 0.637429343615081 -4.81264231736694 
! Gamma         1.05308313294205 1677.74429328102 1.00286111480712 1677.69011514139 
! Port Impedance         50               0                50               0                
81                             0.636478773225617 -5.73565023740613 0.770435036643087 84.2878106271181 0.770435036643087 84.2878106271181 0.636475255231386 -5.74351242560849 
! Gamma         1.05974267419365 1698.70940458943 1.00918274224162 1698.65488701652 
! Port Impedance         50               0                50               0                
82                             0.635353933469877 -6.66402005748714 0.77135989145086 83.3558350092971 0.771359891450861 83.3558350092971 0.635350836455806 -6.67646223808512 
! Gamma         1.06636133475773 1719.67447487779 1.01546554825129 1719.61961997042 
! Port Impedance         50               0                50               0                
83                             0.634057447245956 -7.59476804956649 0.772422543078659 82.4214451887092 0.772422543078659 82.4214451887092 0.634054763746047 -7.61182905981098 
! Gamma         1.07293986046144 1740.63950489471 1.02171024123332 1740.58431471319 
! Port Impedance         50               0                50               0                
84                             0.632587792985081 -8.52822747465086 0.773622795875495 81.4843042370741 0.773622795875494 81.4843042370741 0.632585515639489 -8.54995108373904 
! Gamma         1.07947897475179 1761.60449536627 1.027917508319   1761.54897193367 