! Touchstone file exported from HFSS 2020.2.0
!        File:           /home/erdoel/scratch/Other/CoaxWG.aedt
!        Generated:      10:52:40 AM  Oct 13, 2021
!        Design:         HFSSDesign1
!        Project:        CoaxWG
!        Setup:          Setup1
!        Solution:       Sweep
!
! Variables:
!        th = 0.05mm
!        w = 0.2mm
!
# GHZ S MA R 50.000000
! Terminal data exported
! Port[1] = 1
! Port[2] = 2
1                              0.1708561409755  74.7422191707513 0.983443775066088 164.462886123649 0.983443775066089 164.462886123649 0.171073345943295 73.0347342598136 
! Gamma         0.106554614994965 21.0775206395386 0.108894404693546 21.0840220511507 
! Port Impedance         50               0                50               0                
2                              0.320234368428501 59.8609298767376 0.944909077156026 149.832996006538 0.944909077156027 149.832996006538 0.320407211743941 59.0248097668889 
! Gamma         0.155828237584281 42.0875115550949 0.160683333319801 42.0981010466992 
! Port Impedance         50               0                50               0                
3                              0.438230348445596 46.4831010943924 0.896172378704983 136.523599077779 0.896172378704981 136.523599077779 0.438365921833774 45.9582489576605 
! Gamma         0.194102569550424 63.0854243486694 0.201216928738871 63.0991909505643 
! Port Impedance         50               0                50               0                
4                              0.524155382729409 34.5161182679396 0.848848814781756 124.584061235451 0.848848814781756 124.584061235451 0.524258050058357 34.1618593888979 
! Gamma         0.226548656827627 84.077090430915  0.235709766824998 84.0935316732192 
! Port Impedance         50               0                50               0                
5                              0.582319221640802 23.7201440840952 0.810192024308756 113.800264754893 0.810192024308756 113.800264754893 0.582393102126149 23.4815572888246 
! Gamma         0.255226017107661 105.064771427854 0.266267444130797 105.083560216542 
! Port Impedance         50               0                50               0                
6                              0.61775607607547 13.7648692482116 0.783635061457937 103.849803763452 0.783635061457937 103.849803763452 0.617804818214147 13.6167195074998 
! Gamma         0.281206822568183 126.049626151188 0.293995664154996 126.070528871394 
! Port Impedance         50               0                50               0                
7                              0.634210904791844 4.30296812826659 0.77044373512534 94.3884813008774 0.770443735125341 94.3884813008774 0.63423751486083 4.23397835564588 
! Gamma         0.305134148787432 147.032342112319 0.31956164220318 147.055181654273 
! Port Impedance         50               0                50               0                
8                              0.633555327600704 -5.00502131224178 0.770952696391796 85.0782525532185 0.770952696391796 85.0782525532185 0.633562214238031 -4.99740517373645 
! Gamma         0.327429843811192 168.013366704634 0.343405035670353 168.03800307485  
! Port Impedance         50               0                50               0                
9                              0.615706415311167 -14.4931909547467 0.785131224565907 75.5856838052542 0.785131224565907 75.5856838052542 0.61569559909927 -14.4038817400905 
! Gamma         0.348388409680471 188.993010332425 0.36583385191223 189.019329410828 
! Port Impedance         50               0                50               0                
10                             0.578630944028422 -24.4999076134605 0.812554588311918 65.572634240537  0.812554588311917 65.5726342405369 0.578604455110789 -24.3142102351149 
! Gamma         0.368225115467664 209.971498769524 0.387073860576362 209.999405292815 
! Port Impedance         50               0                50               0                
11                             0.518455132400832 -35.367457525562 0.851776773609783 54.6966623539994 0.851776773609784 54.6966623539994 0.518415776252183 -35.0542277741501 
! Gamma         0.387102983748201 230.949002301673 0.407296427660606 230.978415235863 
! Port Impedance         50               0                50               0                
12                             0.43014423097115 -47.4092139388367 0.899039242885325 42.6436014704458 0.899039242885325 42.6436014704458 0.430097281732564 -46.9007633466957 
! Gamma         0.40514899380009 251.925653116463 0.426635285926877 251.956502468633 
! Port Impedance         50               0                50               0                
13                             0.309713197655565 -60.8145344947491 0.946646751592377 29.2213364262006 0.946646751592377 29.2213364262006 0.309671264502054 -59.9333047014024 
! Gamma         0.422464343112244 272.901556260082 0.445197187794013 272.933780802541 
! Port Impedance         50               0                50               0                
14                             0.158696979585536 -75.47792517239  0.982679890475956 14.5205463425186 0.982679890475956 14.5205463425186 0.158706683680502 -73.4697320553048 
! Gamma         0.439131232211333 293.876796847661 0.463068966570729 293.910342445491 
! Port Impedance         50               0                50               0                
15                             0.011226910555451 88.2108098379019 0.994915941516678 -0.951005160180708 0.994915941516678 -0.951005160180696 0.0129293063594029 60.1675835163788 
! Gamma         0.455217512430026 314.851444985292 0.480322384377861 314.886263336508 
! Port Impedance         50               0                50               0                
16                             0.179613381505788 73.5610676528283 0.978504811207369 -16.3580052590859 0.978504811207369 -16.3580052590859 0.179827641686757 71.5728652826305 
! Gamma         0.470779966293743 335.825559231289 0.497017560227624 335.861606897933 
! Port Impedance         50               0                50               0                
17                             0.326821712125315 59.0600247748128 0.939812674646473 -30.8950101162312 0.939812674646474 -30.8950101162312 0.326976345364155 57.9980192980658 
! Gamma         0.485866682196949 356.799189094638 0.513205455941607 356.836426744043 
! Port Impedance         50               0                50               0                
18                             0.44273306719681 45.8604574430044 0.891462121480843 -44.1167981721545 0.891462121480843 -44.1167981721545 0.442858060403674 45.1301252692632 
! Gamma         0.500518811557466 377.772376878785 0.52892971829636 377.810768680358 
! Port Impedance         50               0                50               0                
19                             0.526912932411866 34.0125777573725 0.844868254124974 -55.9847713294091 0.844868254124974 -55.9847713294091 0.527016025756012 33.4580380481264 
! Gamma         0.514771894065975 398.745159069482 0.544228070336491 398.784672207348 
! Port Impedance         50               0                50               0                
20                             0.583700492501248 23.3006172105629 0.807062879239327 -66.7175257952895 0.807062879239327 -66.7175257952896 0.583785573316318 22.8585744387634 
! Gamma         0.528656874072487 419.717567395886 0.559133379702784 419.758171671699 
! Port Impedance         50               0                50               0                
21                             0.618040499835367 13.4037991265296 0.781351956273369 -76.6373059150097 0.781351956273369 -76.6373059150097 0.618110282228345 13.0427651049033 
! Gamma         0.542200891968581 440.689629656047 0.573674491284435 440.731297160818 
! Port Impedance         50               0                50               0                
22                             0.633560376157798 3.98092264665683 0.768952098366932 -86.0866551156883 0.768952098366933 -86.0866551156883 0.633616991776872 3.68355548835896 
! Gamma         0.555427908355963 461.661370366109 0.58787688473108 461.704075206931 
! Port Impedance         50               0                50               0                
23                             0.632019928061027 -5.30287502468578 0.770186080689476 -95.4021742320586 0.770186080689475 -95.4021742320586 0.632065139060442 -5.54629320061376 
! Gamma         0.56835920243509 482.632811279038 0.601763199889663 482.67652934841  
! Port Impedance         50               0                50               0                
24                             0.613234661232187 -14.7775647849934 0.785015936539194 -104.916541678937 0.785015936539194 -104.916541678937 0.613270017352702 -14.9717033715469 
! Gamma         0.581013774297126 503.603971800917 0.615353661233215 503.648680582328 
! Port Impedance         50               0                50               0                
25                             0.575080231322586 -24.7760998040358 0.812987430107786 -114.96749108138 0.812987430107786 -114.96749108138 0.575107262672104 -24.9211692567338 
! Gamma         0.59340867269079 524.574869331247 0.628666424006774 524.620547732301 
! Port Impedance         50               0                50               0                
26                             0.513617663086082 -35.6300741336676 0.852575231516437 -125.896195731674 0.852575231516438 -125.896195731674 0.51363819628095 -35.7205095241402 
! Gamma         0.605559264608066 545.545519541948 0.641717859092883 545.592147751081 
! Port Impedance         50               0                50               0                
27                             0.423826277833596 -47.6263680515745 0.89987052690808 -138.012262925617 0.89987052690808 -138.012262925617 0.42384309506783 -47.6454227800101 
! Gamma         0.617479458796595 566.515936607689 0.654522789365162 566.563495970436 
! Port Impedance         50               0                50               0                
28                             0.301916132755444 -60.8751138516673 0.94698596514866 -151.496607194607 0.94698596514866 -151.496607194607 0.301934896274987 -60.7736072155433 
! Gamma         0.629181892418155 587.486133399678 0.667094687197549 587.53460631065  
! Port Impedance         50               0                50               0                
29                             0.149876707174318 -74.8759641174584 0.98192273769576 -166.239645550891 0.98192273769576 -166.239645550891 0.149917346838115 -74.4290819370072 
! Gamma         0.640678088125607 608.45612164672  0.679445840747789 608.505491455419 
! Port Impedance         50               0                50               0                
30                             0.0205099214491829 78.0372008250832 0.992721444417436 178.285508474213 0.992721444417436 178.285508474213 0.0208723326624414 73.4574938003306 
! Gamma         0.65197858700277 629.4259120727   0.691587494780508 629.476163000542 
! Port Impedance         50               0                50               0                
31                             0.187604287109286 71.8541668867487 0.975100170680842 162.918663289086 0.975100170680842 162.918663289086 0.187648901479825 71.2306862663476 
! Gamma         0.663093061798582 650.395514512935 0.703529970649601 650.446631580192 
! Port Impedance         50               0                50               0                
32                             0.333113786865002 57.9153406918327 0.935856163008116 148.44992420957  0.935856163008115 148.44992420957  0.333136447602402 57.5365263446042 
! Gamma         0.674030413883197 671.364938014066 0.71528276912713 671.41690697479  
! Port Impedance         50               0                50               0                
33                             0.447223153200442 44.9703356557989 0.887618985272783 135.30194727536  0.887618985272784 135.30194727536  0.447233966760055 44.6879968463091 
! Gamma         0.68479885672079 692.33419091975  0.726854658956913 692.386998204141 
! Port Impedance         50               0                50               0                
34                             0.529827786597843 33.2818177995504 0.841559026288431 123.497258698485 0.841559026288431 123.497258698485 0.529829120379689 33.055372099095  
! Gamma         0.69540598809946 713.303280944891 0.738253753446811 713.356913607695 
! Port Impedance         50               0                50               0                
35                             0.585339002825381 22.6773616487587 0.804469690220529 112.810431469643 0.804469690220528 112.810431469643 0.585331778452322 22.4898888397123 
! Gamma         0.705858852831603 734.27221524002  0.749487577120365 734.326660914078 
! Port Impedance         50               0                50               0                
36                             0.618639032224942 12.8526014219592 0.779516968447868 102.918017839495 0.779516968447868 102.918017839494 0.618623708811008 12.6955088579099 
! Gamma         0.716163997561349 755.241000447271 0.760563123843939 755.29624730208  
! Port Impedance         50               0                50               0                
37                             0.633253243455153 3.47515868516415 0.767857996238488 93.4782529519144 0.767857996238489 93.4782529519144 0.633230051381631 3.34365232153327 
! Gamma         0.726327518694233 776.209642749972 0.771486907782326 776.265679453995 
! Port Impedance         50               0                50               0                
38                             0.63083670493944 -5.78443852048279 0.76979646924777 84.1553537912195 0.76979646924777 84.1553537912195 0.630805738089738 -5.89302753160983 
! Gamma         0.736355104605256 797.178147915381 0.782265008265429 797.234963602131 
! Port Impedance         50               0                50               0                
39                             0.611103940653454 -15.2525558811118 0.785282457143754 74.6168650368058 0.785282457143753 74.6168650368057 0.611065241546266 -15.3394002676148 
! Gamma         0.746252072896615 818.146521333099 0.792903109362602 818.20410557032  
! Port Impedance         50               0                50               0                
40                             0.571834365299807 -25.2587224086794 0.813828202925723 64.5249257924861 0.813828202925723 64.524925792486  0.571788064807076 -25.3235551627312 
! Gamma         0.756023403349509 839.114768048834 0.803406534962333 839.173110810302 
! Port Impedance         50               0                50               0                
41                             0.509013667846511 -36.1283418155183 0.853822414118777 53.5390743015034 0.853822414118778 53.5390743015034 0.508960254915396 -36.1688703613833 
! Gamma         0.765673767242198 860.082892794182 0.81378027993636 860.141984434238 
! Port Impedance         50               0                50               0                
42                             0.417623234374625 -48.1321953624276 0.901191769357801 41.353805863233  0.901191769357801 41.353805863233  0.417564097494263 -48.1419850316931 
! Gamma         0.775207553464229 881.05090001348  0.824029037920511 881.110731243585 
! Port Impedance         50               0                50               0                
43                             0.294063675107341 -61.3310076525468 0.947831460604225 27.7993842031485 0.947831460604226 27.7993842031485 0.294002353031439 -61.2911487476833 
! Gamma         0.784628891853242 902.018793887628 0.834157226167109 902.079355754905 
! Port Impedance         50               0                50               0                
44                             0.140798205778418 -74.9631138244372 0.981633234702317 13.005122460129  0.981633234702317 13.005122460129  0.140746402774259 -74.7829523311422 
! Gamma         0.793941674106215 922.986578355275 0.84416900780225 923.047862222922 
! Port Impedance         50               0                50               0                
45                             0.0300649665941218 77.5278465590878 0.990886379099823 -2.4813161539093 0.990886379099822 -2.4813161539093 0.0302434080972367 76.4162055103251 
! Gamma         0.803149572578708 943.954257132301 0.85406831182402 944.016254661411 
! Port Impedance         50               0                50               0                
46                             0.196233647248019 70.7018154374353 0.971892564526799 -17.813914817691 0.971892564526799 -17.813914817691 0.196317292600642 70.5023304931847 
! Gamma         0.812256057196781 964.921833728842 0.863858851161081 964.984536861686 
! Port Impedance         50               0                50               0                
47                             0.340156828879859 57.0017461400907 0.931914860976581 -32.216992169063 0.93191486097658 -32.2169921690629 0.340224825901578 56.8880667659976 
! Gamma         0.821264410771214 985.889311465012 0.873544138928311 985.952712409633 
! Port Impedance         50               0                50               0                
48                             0.452526644852968 44.2051038695904 0.883621083542306 -45.2905221747861 0.883621083542307 -45.2905221747862 0.452582150653459 44.1291762254896 
! Gamma         0.830177742797821 1006.85669348485 0.883127503173348 1006.92078470098 
! Port Impedance         50               0                50               0                
49                             0.533591560002969 32.6261407834089 0.837951540568541 -57.0286735577787 0.837951540568542 -57.0286735577786 0.533635644223786 32.5742261943865 
! Gamma         0.838999002022532 1027.82398276942 0.892612100250605 1027.88875695493 
! Port Impedance         50               0                50               0                
50                             0.587857654548452 22.1026051716438 0.801460732929262 -67.6643596034437 0.801460732929262 -67.6643596034437 0.587891284863511 22.0687803518016 
! Gamma         0.847730987830232 1048.79118214793 0.902000926966565 1048.85663222699 
! Port Impedance         50               0                50               0                
51                             0.620162372747098 12.3352762565519 0.777166993184005 -77.5226215726012 0.777166993184005 -77.5226215726011 0.620186471945219 12.3163576131647 
! Gamma         0.856376360636832 1069.75829430889 0.911296831649875 1069.82441342016 
! Port Impedance         50               0                50               0                
52                             0.633942955754815 2.99584526172629 0.766159490540713 -86.9445047474546 0.766159490540713 -86.9445047474545 0.633958315384431 2.98981870256189 
! Gamma         0.864937651348448 1090.72532180933 0.920502524255259 1090.79210329559 
! Port Impedance         50               0                50               0                
53                             0.630763009654384 -6.24193527696233 0.768716961421685 -96.264739548732 0.768716961421685 -96.264739548732 0.630770246700539 -6.2365736390665 
! Gamma         0.873417270029689 1111.69226708371 0.92962058558984 1111.75970448192 
! Port Impedance         50               0                50               0                
54                             0.610251537780525 -15.7017876850443 0.784776631425791 -105.815094785777 0.784776631425792 -105.815094785777 0.610251092220435 -15.6864216143788 
! Gamma         0.881817513825227 1132.659132452   0.93865347577369 1132.72721948413 
! Port Impedance         50               0                50               0                
55                             0.570110526121354 -25.7102504835499 0.813825007761978 -115.932975311151 0.813825007761978 -115.932975311151 0.57010268285346 -25.6865274518125 
! Gamma         0.890140574232793 1153.62592012728 0.94760354199814 1153.6946506914  
! Port Impedance         50               0                50               0                
56                             0.50626938964287 -36.5870564369702 0.85418783568034 -126.957684979121 0.854187835680341 -126.957684979121 0.50625430955835 -36.5575410282556 
! Gamma         0.898388543782406 1174.59263222209 0.956473025648043 1174.66200038469 
! Port Impedance         50               0                50               0                
57                             0.413717641386151 -48.5885483836549 0.90167365476324 -139.190907087875 0.901673654763241 -139.190907087875 0.413695340376815 -48.5583925090153 
! Gamma         0.906563422186827 1195.55927075511 0.965264068862248 1195.62927074328 
! Port Impedance         50               0                50               0                
58                             0.289009782923129 -61.7311491001913 0.948028630019617 -152.793235034712 0.948028630019618 -152.793235034712 0.288979666082577 -61.714303696476 
! Gamma         0.914667121997455 1216.5258376567  0.973978720590975 1216.59646385101 
! Port Impedance         50               0                50               0                
59                             0.134973300474735 -75.0040604912466 0.981089061511408 -167.620270199258 0.981089061511408 -167.620270199258 0.134929335076627 -75.0682805129286 
! Gamma         0.922701473833855 1237.49233477423 0.982618942155679 1237.56358170219 
! Port Impedance         50               0                50               0                
60                             0.0361668743674716 76.3557061890918 0.989356416622786 176.89036663911  0.989356416622785 176.89036663911  0.0361200706467983 77.1293763688166 
! Gamma         0.930668231225856 1258.45876387702 0.991186612422386 1258.53062620673 
! Port Impedance         50               0                50               0                
61                             0.201475673353571 69.6999041021909 0.969563899878947 161.587502237881 0.969563899878948 161.587502237881 0.201487991879685 69.9537282618043 
! Gamma         0.938569075067809 1279.42512666088 0.999683532570414 1279.49759919513 
! Port Impedance         50               0                50               0                
62                             0.344131056352131 56.1891582306598 0.929283754095163 147.234527199675 0.929283754095162 147.234527199675 0.34414640687317 56.4095696596923 
! Gamma         0.946405617773285 1300.39142475234 1.00811143051678 1300.464502423   
! Port Impedance         50               0                50               0                
63                             0.45515943033791 43.5018680545853 0.881176241090271 134.214209201455 0.881176241090271 134.214209201455 0.455173421067446 43.7230048215823 
! Gamma         0.954179407114134 1321.35765971245 1.01647196501747 1321.43133757535 
! Port Impedance         50               0                50               0                
64                             0.535038071052173 31.9959209962395 0.835999622592672 122.520233774572 0.835999622592672 122.520233774572 0.535049573760207 32.2295997055927 
! Gamma         0.961891929792634 1342.32383304051 1.02476672949215 1342.39810627034 
! Port Impedance         50               0                50               0                
65                             0.58831389082594 21.5180398852269 0.800138247474895 111.914356700127 0.800138247474894 111.914356700127 0.588322886131237 21.7716259611579 
! Gamma         0.969544614761627 1363.28994617745 1.0329972555607  1363.36481006318 
! Port Impedance         50               0                50               0                
66                             0.619768086365476 11.7727000751906 0.776513565708534 102.070224286414 0.776513565708535 102.070224286414 0.61977514620144 12.0529271272854 
! Gamma         0.977138836320198 1384.25600050883 1.04116501635464 1384.33145044923 
! Port Impedance         50               0                50               0                
67                             0.632750932522327 2.43339695669182 0.766175287595068 92.6467873708648 0.766175287595068 92.6467873708648 0.63275709274746 2.74806402633976 
! Gamma         0.984675916990144 1405.22199736794 1.04927142959666 1405.2980288674  
! Port Impedance         50               0                50               0                
68                             0.628732296052411 -6.826060685137  0.769389138683073 83.3091773745041 0.769389138683073 83.3091773745041 0.62873914430372 -6.46654677940511 
! Gamma         0.992157130214024 1426.18793803839 1.05731786047236 1426.26454670295 
! Port Impedance         50               0                50               0                
69                             0.607243480582577 -16.3312590768404 0.786078100843193 73.7249046822276 0.786078100843194 73.7249046822276 0.607253463568764 -15.9115717957878 
! Gamma         0.99958370285956 1447.15382375675 1.0653056243154  1447.23100529034 
! Port Impedance         50               0                50               0                
70                             0.565886328346363 -26.4127242718741 0.815685159874582 63.5555911427853 0.815685159874582 63.5555911427853 0.565903420293629 -25.9081451873852 
! Gamma         1.00695681758052 1468.11965571486 1.07323598912742 1468.19740591568 
! Port Impedance         50               0                50               0                
71                             0.500508235717599 -37.396853388632 0.856428963252322 52.4620638781357 0.856428963252322 52.4620638781357 0.500539414864782 -36.7629656405805 
! Gamma         1.01427761500822 1489.0854350621  1.08111017792002 1489.16374981931 
! Port Impedance         50               0                50               0                
72                             0.406102691330291 -49.5525567973444 0.903917445035679 40.1468248098457 0.90391744503568 40.1468248098457 0.406161797820789 -48.6961602166471 
! Gamma         1.02154719581092 1510.0511629075  1.0889293709213  1510.13003819792 
! Port Impedance         50               0                50               0                
73                             0.279441935707806 -62.9361878248726 0.949635101536183 26.4617800862984 0.949635101536183 26.4617800862984 0.279563910784209 -61.6022191593602 
! Gamma         1.0287666226353  1531.01684032165 1.0966947076451  1531.09627220671 
! Port Impedance         50               0                50               0                
74                             0.123856044466742 -76.7898933652717 0.981287967348527 11.5737034381895 0.981287967348527 11.5737034381895 0.124207574736824 -73.6760974674131 
! Gamma         1.03593692191387 1551.98246833853 1.10440728882615 1552.0624529614  
! Port Impedance         50               0                50               0                
75                             0.047162723981044 81.4253094485999 0.987664802540803 -3.93166063570569 0.987664802540804 -3.93166063570569 0.0481961697375686 73.4533082613458 
! Gamma         1.04305908557032 1572.94804795733 1.11206817824878 1573.02858154008 
! Port Impedance         50               0                50               0                
76                             0.212015503584873 69.7943034984935 0.966159276655916 -19.1987051496843 0.966159276655915 -19.1987051496843 0.212246155720623 68.071445953952  
! Gamma         1.0501340726247  1593.91358014394 1.1196784044543  1593.99465898488 
! Port Impedance         50               0                50               0                
77                             0.353059874649843 55.9840826331275 0.924860450292411 -33.4798806379887 0.924860450292411 -33.4798806379887 0.353181729103774 55.0338459762025 
! Gamma         1.05716281070079 1614.87906583262 1.12723896235721 1614.96068630382 
! Port Impedance         50               0                50               0                
78                             0.462283048131439 43.2556060048265 0.876472526027584 -46.4167861181491 0.876472526027584 -46.4167861181491 0.462356214656217 42.604800768362  
! Gamma         1.06414619744466 1635.8445059273  1.13475081476858 1635.9266644721  
! Port Impedance         50               0                50               0                
79                             0.540575927828895 31.7719364115335 0.831506759620783 -58.0334786298191 0.831506759620784 -58.0334786298191 0.540619458761921 31.2782144921446 
! Gamma         1.07108510186538 1656.80990130296 1.14221489381656 1656.89259443386 
! Port Impedance         50               0                50               0                
80                             0.592607833131834 21.3333821767402 0.796087457732493 -68.5759778675599 0.796087457732492 -68.5759778675599 0.592630592372142 20.9340650723278 
! Gamma         1.07798036559566 1677.77525280706 1.14963210231256 1677.85847710328 
! Port Impedance         50               0                50               0                
81                             0.623133041350274 11.6305310449856 0.772969680857277 -78.3719262306582 0.772969680857277 -78.3719262306582 0.62313987211352 11.2913097755244 
! Gamma         1.08483280409071 1698.74056126055 1.15700331501531 1698.82431336605 
! Port Impedance         50               0                50               0                
82                             0.635431846327547 2.33404244592033 0.763120750205431 -87.7608629597462 0.763120750205432 -87.7608629597462 0.635425513904647 2.03263712977919 
! Gamma         1.09164320774591 1719.70582745914 1.16432937984081 1719.7901040806  
! Port Impedance         50               0                50               0                
83                             0.630907722486815 -6.88038175526322 0.766772710389961 -97.0753616757857 0.766772710389961 -97.0753616757857 0.63088968106221 -7.16117662058082 
! Gamma         1.09841234296638 1740.67105217428 1.17161111900117 1740.75585007914 
! Port Impedance         50               0                50               0                
84                             0.609043544296895 -16.3331815497031 0.783836429365507 -106.645543320082 0.783836429365508 -106.645543320082 0.609014220077316 -16.6095919129936 