! Touchstone file exported from HFSS 2020.2.0
!        File:           /home/erdoel/scratch/Other/CoaxWG.aedt
!        Generated:      10:26:58 AM  Oct 13, 2021
!        Design:         HFSSDesign1
!        Project:        CoaxWG
!        Setup:          Setup1
!        Solution:       Sweep
!
! Variables:
!        th = 0.05mm
!        w = 0.2mm
!
# GHZ S MA R 50.000000
! Terminal data exported
! Port[1] = 1
! Port[2] = 2
1                              0.266092890343719 70.256438428908  0.962232045867442 160.504754422474 0.962232045867442 160.504754422474 0.266132473130894 70.0521472304827 
! Gamma         0.0832532955456785 21.0541534129627 0.0835659660843104 21.0561998086374 
! Port Impedance         50               0                50               0                
2                              0.474247160104389 53.2990738343636 0.878279062160962 143.484683897488 0.878279062160961 143.484683897488 0.474281831873575 53.2000868103724 
! Gamma         0.122822890785234 42.0546075328363 0.123887440470249 42.0581502165833 
! Port Impedance         50               0                50               0                
3                              0.613733789665332 39.4749491317896 0.787316792974877 129.624980633824 0.787316792974877 129.624980633824 0.613759657706982 39.4142888034233 
! Gamma         0.153687343639926 63.0452103375811 0.155484670666632 63.0499286228148 
! Port Impedance         50               0                50               0                
4                              0.700571629052437 28.3088755182355 0.711432484310815 118.432958519319 0.711432484310814 118.432958519319 0.700588728607237 28.2697844985862 
! Gamma         0.179902550144018 84.0307142441251 0.182386340832635 84.0364247526383 
! Port Impedance         50               0                50               0                
5                              0.752620057726722 19.015060203612  0.656389193830873 109.117222005907 0.656389193830872 109.117222005907 0.752629309168021 18.9910117377776 
! Gamma         0.203099093009615 105.012965587856 0.206225332363975 105.019547370574 
! Port Impedance         50               0                50               0                
6                              0.78184747495067 10.9033792268002 0.62147788891054 100.985073667964 0.62147788891054 100.985073667964 0.781849773483627 10.89139324551   
! Gamma         0.224130245696851 125.99291074148  0.227860647121135 126.000276894233 
! Port Impedance         50               0                50               0                
7                              0.794859118327726 3.43171208525068 0.60484009484341 93.4927790563092 0.60484009484341 93.4927790563092 0.794855111515288 3.43048389807016 
! Gamma         0.24350951908594 146.971111172201 0.247811179902285 146.979195613392 
! Port Impedance         50               0                50               0                
8                              0.794481191157686 -3.84494179702433 0.605317679409813 86.193930505877  0.605317679409813 86.193930505877  0.794471257626519 -3.83566170090059 
! Gamma         0.261574576189624 167.947932198891 0.266419091190721 167.956682616669 
! Port Impedance         50               0                50               0                
9                              0.780626307154079 -11.3403105370336 0.622936442200332 78.6731152200451 0.622936442200332 78.6731152200451 0.780610587052762 -11.3198398219189 
! Gamma         0.278561571427649 188.923627235824 0.283924203857006 188.933000957358 
! Port Impedance         50               0                50               0                
10                             0.750266990864701 -19.5021241087742 0.65888862935171 70.4800057919432 0.658888629351711 70.4800057919432 0.750245442750769 -19.4686043284503 
! Gamma         0.294643366534745 209.898380567356 0.300502373001817 209.908341963089 
! Port Impedance         50               0                50               0                
11                             0.696520737913975 -28.8765532227769 0.714987725529459 61.0635467137371 0.714987725529459 61.0635467137371 0.696493268697518 -28.8261151246447 
! Gamma         0.309951016852987 230.872331159851 0.316287115625384 230.882849923606 
! Port Impedance         50               0                50               0                
12                             0.607067047380502 -40.1520561559646 0.791661334023242 49.7240761768333 0.791661334023241 49.7240761768333 0.607033883174641 -40.0763821093484 
! Gamma         0.324586696797167 251.845586868339 0.331382650953945 251.856636829497 
! Port Impedance         50               0                50               0                
13                             0.463896042185298 -54.0776214264982 0.882331945667828 35.678750017532  0.882331945667829 35.678750017532  0.463858863859107 -53.9551035517782 
! Gamma         0.338631898619487 272.818233387152 0.345872187431889 272.829791660061 
! Port Impedance         50               0                50               0                
14                             0.25203835051864 -70.9100432577029 0.963558048519718 18.4947962123276 0.963558048519719 18.4947962123276 0.252004921392091 -70.6501777322985 
! Gamma         0.352152860326205 293.790340140322 0.359823417756169 293.802386498196 
! Port Impedance         50               0                50               0                
15                             0.0144311811929643 76.792005176664  0.99530962989262 -0.976320712796091 0.995309629892619 -0.976320712796092 0.0147760723644097 72.3232401066432 
! Gamma         0.365204288299504 314.761964300762 0.373292292679248 314.774480703972 
! Port Impedance         50               0                50               0                
16                             0.276683128181144 69.0525771856882 0.956290211332981 -20.298623810519 0.956290211332981 -20.298623810519 0.276743135452842 68.825364598446  
! Gamma         0.377831987109995 335.733153617151 0.386325690288463 335.746123850067 
! Port Impedance         50               0                50               0                
17                             0.481229736604269 52.4998826266316 0.872122597510911 -37.1560375498093 0.872122597510912 -37.1560375498093 0.481274294304584 52.3910723811995 
! Gamma         0.390074764882465 356.703948454188 0.398963352039394 356.717357840194 
! Port Impedance         50               0                50               0                
18                             0.617899565446563 38.8909542130469 0.782093109052274 -50.8786833163932 0.782093109052274 -50.8786833163932 0.617932982958098 38.8258883108082 
! Gamma         0.401965844263355 377.674383297571 0.411239317691255 377.688218472752 
! Port Impedance         50               0                50               0                
19                             0.702918870644366 27.8592881583968 0.707401784252313 -61.9754506536768 0.707401784252314 -61.9754506536768 0.702943190812924 27.818903082384  
! Gamma         0.413533927225991 398.644487886725 0.423183009222528 398.658736617282 
! Port Impedance         50               0                50               0                
20                             0.753834955489775 18.649609166312  0.653429053747072 -71.2315393197794 0.653429053747071 -71.2315393197794 0.753851690624249 18.6265605744281 
! Gamma         0.424804012240811 419.614288081708 0.434820063302724 419.628939114354 
! Port Impedance         50               0                50               0                
21                             0.782317362884033 10.5892108358214 0.61940087924017 -79.3301685124454 0.61940087924017 -79.3301685124454 0.78232759039893 10.5803076695261 
! Gamma         0.435798030792613 440.583806535903 0.446172980127491 440.598849475011 
! Port Impedance         50               0                50               0                
22                             0.794774266744481 3.14615684978718 0.603497345959188 -86.8083285839637 0.603497345959188 -86.8083285839637 0.794778695436223 3.15025476621088 
! Gamma         0.446535349743578 461.553063226756 0.457261635874842 461.568488431506 
! Port Impedance         50               0                50               0                
23                             0.793902092492082 -4.11914859338806 0.604617310040147 -94.1089074796082 0.604617310040146 -94.1089074796082 0.79390113841282 -4.10178876271406 
! Gamma         0.457033172603826 482.522075878032 0.46810369225956 482.537874376121 
! Port Impedance         50               0                50               0                
24                             0.779509497320616 -11.6182452979294 0.622836897633554 -101.646496594163 0.622836897633553 -101.646496594163 0.779503357529641 -11.5859620832707 
! Gamma         0.467306863503021 503.490860300405 0.478714927368134 503.507023714738 
! Port Impedance         50               0                50               0                
25                             0.748457389803595 -19.7988961089688 0.659380088454246 -109.872882288067 0.659380088454246 -109.872882288067 0.748446138837714 -19.7480629089539 
! Gamma         0.477370211315852 524.459430668501 0.489109505514235 524.475951154859 
! Port Impedance         50               0                50               0                
26                             0.693717918899218 -29.2083071704032 0.716046924129679 -119.342337783066 0.716046924129678 -119.342337783066 0.693701718537339 -29.1317158906796 
! Gamma         0.487235646943979 545.427799748462 0.499300199352971 545.444669941523 
! Port Impedance         50               0                50               0                
27                             0.602797217934581 -40.5331420349176 0.793133609541467 -130.757405282839 0.793133609541467 -130.757405282839 0.602776925277303 -40.4153896133615 
! Gamma         0.496914423497329 566.39597908637  0.509298574112563 566.413192053442 
! Port Impedance         50               0                50               0                
28                             0.457635601626792 -54.5031207519669 0.883683526447087 -144.895909809305 0.883683526447087 -144.895909809305 0.457614843067376 -54.3037719471273 
! Gamma         0.506416766867173 587.363979165431 0.519115141644519 587.381528365894 
! Port Impedance         50               0                50               0                
29                             0.24382703991815 -71.2656341497647 0.963679207744452 -162.161689138564 0.963679207744451 -162.161689138564 0.243823204965253 -70.8103911900823 
! Gamma         0.51575200241282 608.331809538094 0.528759490064241 608.349688788088 
! Port Impedance         50               0                50               0                
30                             0.0231961432306349 78.0760675767749 0.993198451842219 178.350874036514 0.99319845184222 178.350874036514 0.0237240080291219 72.9339357446432 
! Gamma         0.524928662223593 629.299478937752 0.538240393569017 629.317682379032 
! Port Impedance         50               0                50               0                
31                             0.283779142338114 68.2994842762775 0.952434842670792 159.098958670288 0.952434842670792 159.098958670288 0.283864587605585 67.8529601892239 
! Gamma         0.533954576528585 650.266995373725 0.547565906021165 650.28551744627  
! Port Impedance         50               0                50               0                
32                             0.485883503806395 51.9490177290942 0.867986119834404 142.350373555589 0.867986119834404 142.350373555589 0.485945085190446 51.7004908433618 
! Gamma         0.542836951936448 671.23436621265  0.556743441133442 671.253201630443 
! Port Impedance         50               0                50               0                
33                             0.620580568094954 38.4746280814719 0.77861353255202 128.723229015873 0.77861353255202 128.723229015873 0.620629336748716 38.2947989432639 
! Gamma         0.551582438861292 692.201598248491 0.5657798415205  692.220741977692 
! Port Impedance         50               0                50               0                
34                             0.704307857522257 27.5330503128159 0.704814473428295 117.692446957554 0.704814473428296 117.692446957554 0.704347512606228 27.3870582822909 
! Gamma         0.560197189818999 713.168697762804 0.574681438474904 713.188145002577 
! Port Impedance         50               0                50               0                
35                             0.754404213491645 18.381400454901  0.65166880053914 108.475879229431 0.65166880053914 108.475879229431 0.754436903245666 18.2543852725767 
! Gamma         0.568686910114232 734.135670577389 0.583454103907583 734.155416742538 
! Port Impedance         50               0                50               0                
36                             0.782326552522382 10.3568529512599 0.61834754884337 100.396590546925 0.61834754884337 100.396590546925 0.782353698191   10.2406199908533 
! Gamma         0.577056902062821 755.102522099991 0.592103295717645 755.122562805327 
! Port Impedance         50               0                50               0                
37                             0.794337798732129 2.93394544767062 0.60305814907403 92.9220643251118 0.603058149074029 92.9220643251118 0.794360353485462 2.82293944374581 
! Gamma         0.58531210375877 776.069257364404 0.600634097538115 776.089588410763 
! Port Impedance         50               0                50               0                
38                             0.793032718405367 -4.32323730301871 0.604743301839763 85.6114606797207 0.604743301839763 85.6114606797207 0.793051289390137 -4.43363604203217 
! Gamma         0.593457123166791 797.035881065716 0.609051253723413 797.05649842717  
! Port Impedance         50               0                50               0                
39                             0.778130363186335 -11.8244326068172 0.623518502133888 78.0500667028427 0.623518502133888 78.0500667028427 0.778145254583903 -11.9389739170957 
! Gamma         0.601496268226345 818.002397591291 0.617359200224405 818.023297403658 
! Port Impedance         50               0                50               0                
40                             0.746386736570919 -20.0164454225469 0.660629472803297 69.7840549889073 0.660629472803298 69.7840549889073 0.74639790614013 -20.1411460103972 
! Gamma         0.609433573501388 838.96881104838  0.625562091955637 838.989989598726 
! Port Impedance         50               0                50               0                
41                             0.690632690976282 -29.4441686574551 0.717849802386746 60.2557137028878 0.717849802386747 60.2557137028878 0.690639551508049 -29.5883205065208 
! Gamma         0.617272823875486 859.93512528844  0.633663827102345 859.956579005561 
! Port Impedance         50               0                50               0                
42                             0.598211770197452 -40.7832032533836 0.79532195235417 48.7600360373897 0.79532195235417 48.7600360373897 0.59821258816118 -40.9644564678894 
! Gamma         0.625017575663235 880.901343929002 0.641668068806524 880.923069374531 
! Port Impedance         50               0                50               0                
43                             0.451055052883887 -54.7140950290934 0.885677651952915 34.52590242143   0.885677651952914 34.52590242143   0.451044832113071 -54.9766711791541 
! Gamma         0.632671175478625 901.867470372989 0.649578264537478 901.889464233523 
! Port Impedance         50               0                50               0                
44                             0.235421639014152 -71.1110391987012 0.964318167940188 17.1814415758387 0.964318167940188 17.1814415758387 0.235378718970078 -71.646226521546 
! Gamma         0.640236777152848 922.833507826135 0.657397663462464 922.855766905897 
! Port Impedance         50               0                50               0                
45                             0.0324303783351012 74.3918003892246 0.991519326402154 -2.31276647057497 0.991519326402156 -2.31276647057497 0.0319846398450117 78.2174668456341 
! Gamma         0.647717356931343 943.799459312689 0.665129332064001 943.821980526635 
! Port Impedance         50               0                50               0                
46                             0.290698305012044 67.1175898395078 0.949045622086397 -21.4839169612403 0.949045622086397 -21.4839169612403 0.290643552128135 67.5158126280986 
! Gamma         0.655115727167607 964.765327689391 0.672776168201859 964.788108057105 
! Port Impedance         50               0                50               0                
47                             0.490215117075602 51.1619906770602 0.864398707904501 -38.1179910954761 0.8643987079045  -38.1179910954761 0.490183636245795 51.3658532459459 
! Gamma         0.662434548684355 985.731115658267 0.680340913817287 985.754152298153 
! Port Impedance         50               0                50               0                
48                             0.622900129001511 37.8891006059874 0.775745192380773 -51.6486421479077 0.775745192380774 -51.6486421479077 0.622876942202357 38.0226939261842 
! Gamma         0.669676341966313 1006.69682577802 0.687826166434552 1006.72011590197 
! Port Impedance         50               0                50               0                
49                             0.705328807116502 27.0679997148594 0.702880010591517 -62.6152761537655 0.702880010591517 -62.6152761537656 0.705309257456537 27.1641605609714 
! Gamma         0.676843497310404 1027.6624604745  0.695234389585908 1027.68600138301 
! Port Impedance         50               0                50               0                
50                             0.754597072553464 17.9886368658852 0.65060086780491 -71.7958648553824 0.65060086780491 -71.7958648553824 0.754578959220478 18.0600616383002 
! Gamma         0.683938284047704 1048.62802205018 0.702567922302854 1048.65181112771 
! Port Impedance         50               0                50               0                
51                             0.781934521688277 10.004981584152  0.618038177493755 -79.8607658082229 0.618038177493755 -79.8607658082229 0.781916554754109 10.0570778769826 
! Gamma         0.690962858945997 1069.59351269269 0.709828987741603 1069.61754740352 
! Port Impedance         50               0                50               0                
52                             0.793448741382758 2.60054134191727 0.603437112684064 -87.3382744739346 0.603437112684064 -87.3382744739346 0.793430002256377 2.635059257353   
! Gamma         0.697919273874059 1090.5589344828  0.717019701071793 1090.58321236692 
! Port Impedance         50               0                50               0                
53                             0.791619471694731 -4.65646110317433 0.605793737976989 -94.6678829454483 0.605793737976989 -94.6678829454483 0.791599142618864 -4.6403468218154 
! Gamma         0.704809482810912 1111.52428940146 0.724142076674234 1111.54880807102 
! Port Impedance         50               0                50               0                
54                             0.776053265556008 -12.174916694523 0.625272807993069 -102.265651837363 0.625272807993069 -102.265651837363 0.776030423838289 -12.1806816803649 
! Gamma         0.71163534825879 1132.48957933643 0.731198034749031 1132.51433647225 
! Port Impedance         50               0                50               0                
55                             0.743360455755469 -20.4031224611847 0.663149361003302 -110.589397751993 0.663149361003302 -110.589397751993 0.743333813777607 -20.4380701960976 
! Gamma         0.718398647132336 1153.45480608836 0.738189407357522 1153.47979943668 
! Port Impedance         50               0                50               0                
56                             0.686160902637682 -29.8881149114224 0.721162510988911 -120.203094280542 0.721162510988911 -120.203094280542 0.686128312067098 -29.9666868344846 
! Gamma         0.725101076162834 1174.41997137622 0.745117943989748 1174.44519874573 
! Port Impedance         50               0                50               0                
57                             0.591535642504376 -41.301693224106 0.799236877090064 -131.817336050343 0.799236877090065 -131.817336050343 0.591492823700327 -41.4550286416736 
! Gamma         0.731744256877026 1195.38507684243 0.75198531668497 1195.41053610143 
! Port Impedance         50               0                50               0                
58                             0.44134592613655 -55.2869840331644 0.889391707633409 -146.196555518084 0.889391707633409 -146.196555518084 0.441281895953474 -55.598865484124 
! Gamma         0.738329740180831 1216.35012405758 0.75879312474192 1216.37581313136 
! Port Impedance         50               0                50               0                
59                             0.222749074102622 -71.473988565908 0.966105284234621 -163.669096087439 0.96610528423462 -163.669096087439 0.222614365655187 -72.3318744286369 
! Gamma         0.744859010592358 1237.31511452471 0.765542899082063 1237.34103139303 
! Port Impedance         50               0                50               0                
60                             0.0460567535179219 75.046666354775  0.98979945574688 176.806575626568 0.989799455746881 176.806575626568 0.0454173452882862 80.2215140105766 
! Gamma         0.75133349015436 1258.28004968335 0.772236106267192 1258.3061923781  
! Port Impedance         50               0                50               0                
61                             0.301946508354014 65.9753376293902 0.944460234173194 157.733482052016 0.944460234173195 157.733482052016 0.301858924032598 66.8691094860352 
! Gamma         0.757754542052609 1279.24493091315 0.778874152228718 1279.2712975162  
! Port Impedance         50               0                50               0                
62                             0.497932509113272 50.2873346558786 0.859035755183387 141.255471121671 0.859035755183388 141.255471121671 0.4978851276474  50.8538245088127 
! Gamma         0.764123473975621 1300.20975953736 0.78545838571899 1300.23634817845 
! Port Impedance         50               0                50               0                
63                             0.627744546911137 37.2007460346737 0.770992790764716 127.865137843288 0.770992790764716 127.865137843288 0.627709702318992 37.6534121724755 
! Gamma         0.770441541219843 1321.17453682602 0.791990101516435 1321.20134568082 
! Port Impedance         50               0                50               0                
64                             0.7082733309892  26.5036214297875 0.699148987252925 116.999466929426 0.699148987252926 116.999466929426 0.708243266639765 26.9035719980075 
! Gamma         0.776709949589307 1342.13926399885 0.798470543397555 1342.16629128711 
! Port Impedance         50               0                50               0                
65                             0.756337497515722 17.5011740119997 0.647860444585217 107.884059341943 0.647860444585217 107.884059341943 0.756309086507388 17.875532873815  
! Gamma         0.782929858081018 1363.10394222805 0.80490090691319 1363.13118621186 
! Port Impedance         50               0                50               0                
66                             0.78287529881883 9.56014162790724 0.616154909655408 99.8572289911121 0.616154909655408 99.8572289911121 0.782846823947421 9.92469020775036 
! Gamma         0.789102381392298 1384.06857264081 0.811282341960697 1384.09603162296 
! Port Impedance         50               0                50               0                
67                             0.793792415514687 2.17191084573999 0.602298815957816 92.3970407383311 0.602298815957817 92.3970407383311 0.793763542135547 2.53798523675601 
! Gamma         0.795228592252515 1405.03315632175 0.817615955189859 1405.06082864415 
! Port Impedance         50               0                50               0                
68                             0.791433696456088 -5.09182477267397 0.605335962541645 85.0675405658114 0.605335962541645 85.0675405658114 0.791403928904308 -4.71375026192898 
! Gamma         0.801309523607418 1425.99769431505 0.823902812247866 1426.02557835729 
! Port Impedance         50               0                50               0                
69                             0.775291715910258 -12.640626505572 0.625481707506105 77.4531877101961 0.625481707506105 77.4531877101961 0.775261226193529 -12.2387815409438 
! Gamma         0.807346170650559 1446.96218762664 0.830143939873536 1446.99028180455 
! Port Impedance         50               0                50               0                
70                             0.741850191948786 -20.9277951322442 0.664046177241886 69.0941663108688 0.664046177241886 69.0941663108688 0.741819951639256 -20.486054242547 
! Gamma         0.813339492727126 1467.92663722602 0.836340327858681 1467.95493999037 
! Port Impedance         50               0                50               0                
71                             0.683558614154358 -30.511160658705 0.722755798612815 59.4223846597377 0.722755798612815 59.4223846597377 0.683531351812516 -30.0031475397243 
! Gamma         0.819290415120912 1488.89104404816 0.842492930882291 1488.91955388338 
! Port Impedance         50               0                50               0                
72                             0.587288843270687 -42.0828319746493 0.801385674584452 47.7233638813878 0.801385674584452 47.7233638813878 0.587271783887969 -41.4562443595961 
! Gamma         0.825199830716978 1509.85540899519 0.848602670230953 1509.88412441818 
! Port Impedance         50               0                50               0                
73                             0.434831324760846 -56.3324746323862 0.891510911160593 33.2379596452911 0.891510911160593 33.2379596452911 0.434845689332125 -55.4505612055152 
! Gamma         0.831068601573668 1530.81973293793 0.854670435411313 1530.84865249692 
! Port Impedance         50               0                50               0                
74                             0.213968236025614 -73.1420405087011 0.966935457987766 15.671867900982  0.966935457987766 15.671867900982  0.214110929211873 -71.3618280315695 
! Gamma         0.836897560390163 1551.78401671746 0.860697085663111 1551.81313899094 
! Port Impedance         50               0                50               0                
75                             0.0545885915216206 80.7166172522608 0.988233388296133 -3.87571574528216 0.988233388296135 -3.87571574528216 0.0555906900112981 74.4843775988755 
! Gamma         0.842687511886286 1572.74826114653 0.86668345138349 1572.77758474215 
! Port Impedance         50               0                50               0                
76                             0.309415903923405 66.162210206645  0.941000022198088 -22.8776499620862 0.941000022198088 -22.8776499620862 0.309636513921461 65.2352814399299 
! Gamma         0.848439234103627 1593.71246701078 0.872630335463664 1593.74199056447 
! Port Impedance         50               0                50               0                
77                             0.502940535569641 50.2231577817027 0.855185454786539 -39.243014776654 0.855185454786538 -39.243014776654 0.503074967515942 49.7900887450795 
! Gamma         0.854153479626882 1614.67663507009 0.878538514546411 1614.70635724504 
! Port Impedance         50               0                50               0                
78                             0.630723786624922 37.1103438181849 0.767725802686824 -52.5327836394634 0.767725802686824 -52.5327836394635 0.630818332760394 36.8638453941263 
! Gamma         0.859830976733677 1635.64076605971 0.884408740216347 1635.67068554552 
! Port Impedance         50               0                50               0                
79                             0.709893447807286 26.4230151132566 0.696744484487898 -63.3272326834394 0.696744484487898 -63.3272326834394 0.709963667020097 26.2758458741298 
! Gamma         0.865472430481785 1656.60486069135 0.890241740111499 1656.63497620315 
! Port Impedance         50               0                50               0                
80                             0.757070349013878 17.4309169965216 0.646294008493239 -72.3986486706734 0.646294008493239 -72.3986486706734 0.757124007860012 17.3467315924489 
! Gamma         0.871078523729504 1677.56891965429 0.896038218983087 1677.59922993191 
! Port Impedance         50               0                50               0                
81                             0.782979964611471 9.49362352676106 0.615341420419842 -80.4031503825137 0.615341420419842 -80.4031503825137 0.783021552457631 9.45427270131834 
! Gamma         0.876649918107375 1698.53294361621 0.901798859687684 1698.56344742347 
! Port Impedance         50               0                50               0                
82                             0.793376865216997 2.10129000275536 0.602176923393258 -87.8586210668218 0.602176923393258 -87.8586210668218 0.793409169621232 2.0969159430616  
! Gamma         0.882187254923856 1719.49693322432 0.907524324130067 1719.52762934818 
! Port Impedance         50               0                50               0                
83                             0.790488022687783 -5.17519231327964 0.605894602188401 -95.1998756552336 0.6058946021884  -95.1998756552336 0.790512862932998 -5.14987872975132 
! Gamma         0.887691156034087 1740.46088910605 0.913215254150881 1740.49177635597 
! Port Impedance         50               0                50               0                