! Touchstone file exported from HFSS 2020.1.3
!        File:           /home/erdoel/scratch/P2S30/WR12_SIW_MS_Transition_1.aedt
!        Generated:      10:58:58 AM  Feb 20, 2021
!        Design:         Design1_Al_SR_Simple1_er307_withadapter1
!        Project:        WR12_SIW_MS_Transition_1
!        Setup:          Setup1
!        Solution:       Sweep
!
! Variables:
!        T_L2 = 35um
!        fil = 0.3mm
!        hm = 0.36mm
!        hsub = 0.127mm
!        hwg = 1.55mm
!        l1 = 1.05mm
!        lcav = 1.92mm
!        len50 = 12.48mm
!        lt = 0.7mm
!        offx = 0um
!        offy = 0um
!        rvia = 0.075mm
!        s1 = 1.33mm
!        shift = 20um
!        sl = 3.1mm
!        sy = 0.65mm
!        th = 35um
!        w1 = 1.17mm
!        w50 = 300um
!        wcav = 3.45mm
!        wm = 1.9mm
!        wslot = 1.5mm
!        wt = 0.6mm
!        wwg = 3.1mm
!
!Data is not renormalized
# GHZ S MA
! Terminal data exported
! Port[1] = _WG
! Port[2] = MS
70                             0.777484950359236 -164.247142887198 0.160693815577422 100.199166340574 0.160693815577422 100.199166340574 0.486299937876144 78.4049061832852 
! Gamma         0.293141099784131 1044.04702346873 0                0                0                0                12.5029364911039 2324.13663767754 
! Port Impedance538.149285174616 0.0908283845953357 0                0                0                0                48.5438082387439 -0.17371134967966 

70.1                           0.766906819139322 -169.932584769635 0.154274890951445 104.124037838142 0.154274890951446 104.124037838142 0.480724658768996 68.1882851570299 
! Gamma         0.292688732393841 1046.99042530598 0                0                0                0                12.5150224744673 2327.52764242348 
! Port Impedance537.402970218487 0.0900866564796786 0                0                0                0                48.5429947489011 -0.173579818754385 

70.2                           0.753804816460885 -175.784249908818 0.155034197229516 109.298729606958 0.155034197229516 109.298729606958 0.473516274704122 57.8368948439867 
! Gamma         0.292240479391705 1049.92975966114 0                0                0                0                12.5271040216383 2330.9188623878  
! Port Impedance536.66291874963  0.089353946897152 0                0                0                0                48.542130410956  -0.173440754487454 

70.3                           0.737917177612451 178.207018068508 0.164481687356169 114.314268164135 0.164481687356169 114.314268164135 0.464624972764795 47.3491345518213 
! Gamma         0.291796290981781 1052.86506059965 0                0                0                0                12.5391811412898 2334.31029752606 
! Port Impedance535.92905239294  0.088630105143381 0                0                0                0                48.5412699227623 -0.173301953063929 

70.4                           0.719031767239704 172.055497666194 0.182525118021438 117.771296428753 0.182525118021438 117.771296428753 0.453975760004987 36.7283867023954 
! Gamma         0.291356118193259 1055.79636176165 0                0                0                0                12.5512538420559 2337.70194779348 
! Port Impedance535.201294097988 0.0879149837222279 0                0                0                0                48.5404132787134 -0.173163413577334 

70.5                           0.697012614816351 165.781073150001 0.207757647583404 119.000033968205 0.207757647583404 119.000033968205 0.441490031189239 25.9855545509054 
! Gamma         0.290919912863001 1058.7236963691  0                0                0                0                12.5633221325314 2341.09381314491 
! Port Impedance534.479568110683 0.0872084382628581 0                0                0                0                48.539560473211  -0.173025135123876 

70.6                           0.671825684497845 159.409376924816 0.238293843752153 118.049226346991 0.238293843752153 118.04922634699  0.427114632115388 15.1410212074698 
! Gamma         0.290487627618534 1061.64709723286 0                0                0                0                12.575386021271  2344.48589353488 
! Port Impedance533.763799945671 0.0865103274393263 0                0                0                0                48.5387115006776 -0.172887116803621 

70.7                           0.643559523751804 152.971486373305 0.272346533378431 115.297562956561 0.272346533378431 115.297562956561 0.410853745030912 4.22559620932323 
! Gamma         0.290059215861482 1064.56659675954 0                0                0                0                12.5874455167892 2347.87818891756 
! Port Impedance533.053916359451 0.0858205128925944 0                0                0                0                48.537866355558  -0.172749357720641 

70.8                           0.612436170710107 146.503127761357 0.308408425396187 111.169824563494 0.308408425396187 111.169824563494 0.392796726859798 -6.71991181860765 
! Gamma         0.289634631751425 1067.4822269582  0                0                0                0                12.5995006275603 2351.27069924678 
! Port Impedance532.349845324167 0.0851388591548951 0                0                0                0                48.5370250323199 -0.17261185698303 

70.9                           0.578808686024367 140.043426821294 0.345246200827993 106.028391662702 0.345246200827993 106.028391662702 0.373134280800461 -17.6466368448075 
! Gamma         0.289213830190183 1070.39401944696 0                0                0                0                12.6115513620187 2354.66342447603 
! Port Impedance531.651516002086 0.0844652335763638 0                0                0                0                48.5361875254531 -0.172474613702896 

71                             0.54314394497392 133.633344044028 0.381855871707164 100.155752418888 0.381855871707164 100.155752418888 0.352157174911443 -28.5009065825623 
! Gamma         0.288796766806527 1073.30200545945 0                0                0                0                12.623597728559  2358.05636455845 
! Port Impedance530.958858720711 0.0837995062538566 0                0                0                0                48.5353538294699 -0.172337626996342 

71.1                           0.505992355836841 127.314014571953 0.417428635501008 93.7662855477781 0.417428635501008 93.7662855477781 0.330236190693698 -39.2282371748665 
! Gamma         0.288383397941346 1076.2062158511  0                0                0                0                12.6356397355365 2361.44951944684 
! Port Impedance530.271804948534 0.0831415499618829 0                0                0                0                48.5345239389046 -0.172200895983445 

71.2                           0.467949006763885 121.125251934288 0.451331786953667 87.0223345143118 0.451331786953667 87.0223345143119 0.3077875454145  -49.7772804143537 
! Gamma         0.287973680633211 1079.10668110533 0                0                0                0                12.647677391267  2364.84288909366 
! Port Impedance529.590287271394 0.0824912400855785 0                0                0                0                48.5336978483134 -0.172064419788231 

71.3                           0.429612415933596 115.104460519567 0.483097588602461 80.0474898952562 0.483097588602461 80.0474898952562 0.285232205850017 -60.102950245916 
! Gamma         0.287567572603846 1082.0034313396  0                0                0                0                12.6597107040277 2368.23647345104 
! Port Impedance528.914239369429 0.0818484545556506 0                0                0                0                48.5328755522738 -0.171928197538653 

71.4                           0.39154705530105 109.286143729766 0.512412962858925 72.9362206084857 0.512412962858925 72.9362206084857 0.262958443576079 -70.1682060005773 
! Gamma         0.287165032241795 1084.89649631134 0                0                0                0                12.6717396820569 2371.63027247076 
! Port Impedance528.243595994605 0.0812130737852292 0                0                0                0                48.532057045385  -0.171792228366571 

71.5                           0.354254304855111 103.702120824698 0.539105765531611 65.7606214956575 0.539105765531612 65.7606214956575 0.241294623192439 -79.9443331306979 
! Gamma         0.286766018587413 1087.78590542375 0                0                0                0                12.6837643335545 2375.02428610428 
! Port Impedance527.578292948805 0.0805849806085578 0                0                0                0                48.5312423222669 -0.171656511407722 

71.6                           0.318154169701695 98.3825097331369 0.563126381910925 58.5752001205628 0.563126381910925 58.5752001205627 0.220495141909568 -89.4098859091188 
! Gamma         0.286370491327514 1090.67168773151 0                0                0                0                12.6957846666819 2378.4185143027  
! Port Impedance526.918267062454 0.0799640602214663 0                0                0                0                48.5304313775606 -0.171521045801705 

71.7                           0.28357779297725 93.3575261009631 0.584525545465285 51.4204102646878 0.584525545465285 51.4204102646878 0.200738630253278 -98.5486411700156 
! Gamma         0.285978410783465 1093.55387194631 0                0                0                0                12.7078006895628 2381.81295701681 
! Port Impedance526.26345617368  0.0793502001235616 0                0                0                0                48.5296242059274 -0.171385830691952 

71.8                           0.250769135555531 88.6602150064596 0.603430401512226 44.3253938904026 0.603430401512227 44.3253938904026 0.182135217238116 -107.346943462081 
! Gamma         0.285589737892921 1096.43248644236 0                0                0                0                12.719812410283  2385.20761419704 
! Port Impedance525.613799107976 0.078743290062084 0                0                0                0                48.5288208020493 -0.171250865225708 

71.9                           0.219893403186553 84.3303978418393 0.620021049350579 37.3102045794742 0.62002104935058 37.3102045794742 0.164739034986302 -115.790747694551 
! Gamma         0.285204434197228 1099.30755926169 0                0                0                0                12.7318198368908 2388.60248579351 
! Port Impedance524.969235658369 0.0781432219773697 0                0                0                0                48.5280211606283 -0.171116148554007 

72                             0.191049803295837 80.4204316916917 0.634509395042285 30.3876622295108 0.634509395042286 30.3876622295107 0.148562672144406 -123.862552254717 
! Gamma         0.284822461829278 1102.17911811942 0                0                0                0                12.7438229773971 2391.997571756   
! Port Impedance524.329706566062 0.0775498899498703 0                0                0                0                48.5272252763862 -0.170981679831651 

72.1                           0.164286785936028 77.0039479074237 0.647121466371271 23.564917712995  0.647121466371271 23.564917712995  0.133591310262356 -131.538320027635 
! Gamma         0.284443783501923 1105.04719040891 0                0                0                0                12.7558218397758 2395.39287203396 
! Port Impedance523.695153501554 0.0769631901486764 0                0                0                0                48.5264331440647 -0.170847458217187 

72.2                           0.139618880549308 74.1897849380568 0.658083647722013 16.8447703451916 0.658083647722013 16.8447703451916 0.119795295110855 -138.784447099131 
! Gamma         0.284068362497829 1107.91180320675 0                0                0                0                12.7678164319637 2398.78838657652 
! Port Impedance523.065519046205 0.0763830207814956 0                0                0                0                48.5256447584246 -0.170713482872883 

72.3                           0.117045578025363 72.1453075389493 0.667612742319486 10.2267659522723 0.667612742319486 10.2267659522723 0.107140660444716 -145.554895651473 
! Gamma         0.283696162658855 1110.77298327775 0                0                0                0                12.7798067618612 2402.18411533245 
! Port Impedance522.440746674254 0.0758092820460408 0                0                0                0                48.5248601142461 -0.170579752964712 

72.4                           0.0965747640641952 71.1369998383656 0.67590941702306 3.70809878624867 0.67590941702306 3.70809878624869 0.0955975740473143 -151.788811757577 
! Gamma         0.283327148375005 1113.63075707974 0                0                0                0                12.7917928373321 2405.58005825024 
! Port Impedance521.820780735256 0.0752418760827789 0                0                0                0                48.5240792063286 -0.170446267662322 

72.5                           0.0782569279351138 71.6023542365315 0.683154416585771 -2.71565988067696 0.683154416585771 -2.71565988067696 0.0851468365587  -157.409389612751 
! Gamma         0.282961284573632 1116.48515076833 0                0                0                0                12.8037746662042 2408.97621527801 
! Port Impedance521.205566436948 0.0746807069290002 0                0                0                0                48.5233020294898 -0.17031302613902 

72.6                           0.0622434535268694 74.2716610683497 0.68950690347618 -9.04998331473204 0.68950690347618 -9.04998331473204 0.0757844563280123 -162.325543572137 
! Gamma         0.282598536709003 1119.33619020156 0                0                0                0                12.8157522562691 2412.37258636358 
! Port Impedance520.595049828513 0.074125680474163 0                0                0                0                48.5225285785664 -0.17018002757175 

72.7                           0.0488919753698791 80.32317133771   0.695104333707148 -15.3009381985462 0.695104333707147 -15.3009381985461 0.0675239343864121 -166.439171804498 
! Gamma         0.282238870752168 1122.18390094444 0                0                0                0                12.8277256152825 2415.76917145444 
! Port Impedance519.989177784245 0.073576704416475 0                0                0                0                48.521758848413  -0.17004727114107 

72.8                           0.0389218379083274 91.284584384029  0.700063374849611 -21.474839313184 0.700063374849611 -21.474839313184 0.0603951991543008 -169.662106225918 
! Gamma         0.281882253181083 1125.02830827348 0                0                0                0                12.8396947509649 2419.16597049776 
! Port Impedance519.387897987591 0.0730336882206707 0                0                0                0                48.5209928339028 -0.169914756031132 

72.9                           0.0334020858989788 107.56500300167  0.704481479034443 -27.577990619393 0.704481479034443 -27.577990619393 0.054438273568386 -171.946741831449 
! Gamma         0.281528650970973 1127.86943718098 0                0                0                0                12.8516596710012 2422.56298344037 
! Port Impedance518.791158915571 0.0724965430769472 0                0                0                0                48.5202305299265 -0.169782481429659 

73                             0.0329145550277416 125.576725377043 0.70843882325741 -33.6164958886007 0.70843882325741 -33.6164958886007 0.0496894557115942 -173.329400306096 
! Gamma         0.281178031584911 1130.70731237944 0                0                0                0                12.8636203830412 2425.96021022882 
! Port Impedance518.198909823564 0.0719651818610234 0                0                0                0                48.5194719313928 -0.169650446527929 

73.1                           0.0364409171037486 139.912330427311 0.712000413151137 -39.5961247070227 0.712000413151137 -39.5961247070227 0.0461596800513004 -173.972295258909 
! Gamma         0.280830362964626 1133.5419583057  0                0                0                0                12.8755768946997 2429.35765080929 
! Port Impedance517.61110073044  0.0714395190952846 0                0                0                0                48.5187170332277 -0.169518650520749 

73.2                           0.0421424918183494 148.983757148697 0.715218212172662 -45.5222222243784 0.715218212172661 -45.5222222243784 0.0438102358842213 -174.173809961187 
! Gamma         0.28048561352151 1136.3733991251  0                0                0                0                12.8875292135568 2432.75530512767 
! Port Impedance517.027682404041 0.0709194709109814 0                0                0                0                48.5179658303745 -0.169387092606438 

73.3                           0.0486622987677015 154.028527886163 0.718133206932932 -51.3996532937169 0.718133206932932 -51.3996532937169 0.0425376402410218 -174.319542114234 
! Gamma         0.280143752127838 1139.20165873556 0                0                0                0                12.8994773471583 2436.15317312953 
! Port Impedance516.448606346994 0.0704049550114478 0                0                0                0                48.5172183177938 -0.169255771986804 

73.4                           0.0552825553082143 156.483768370551 0.720777353816966 -57.2327735794823 0.720777353816966 -57.2327735794823 0.0421791027355448 -174.785081796963 
! Gamma         0.279804748108181 1142.02676077154 0                0                0                0                12.9114213030153 2439.55125476013 
! Port Impedance515.873824782849 0.0698958906363091 0                0                0                0                48.516474490463  -0.169124687867126 

73.5                           0.0616618143233987 157.316253091804 0.723175375219488 -63.0254217812302 0.723175375219488 -63.0254217812302 0.0425383399445002 -175.844726320916 
! Gamma         0.279468571231021 1144.84872860797 0                0                0                0                12.9233610886051 2442.94954996439 
! Port Impedance515.303290642537 0.0693921985266463 0                0                0                0                48.515734343376  -0.168993839456135 

73.6                           0.067644444073804 157.111078725887 0.725346388604235 -68.7809283490205 0.725346388604235 -68.7809283490205 0.043418444198391 -177.634604336386 
! Gamma         0.279135191700552 1147.66758536406 0                0                0                0                12.935296711371  2446.34805868694 
! Port Impedance514.736957551131 0.0688938008910907 0                0                0                0                48.5149978715435 -0.168863225965991 

73.7                           0.073165082631763 156.221187449455 0.727305360705812 -74.5021369914956 0.727305360705812 -74.5021369914956 0.0446471927117519 179.828339599015 
! Gamma         0.278804580148661 1150.48335390707 0                0                0                0                12.9472281787225 2449.74678087209 
! Port Impedance514.17477981491  0.0684006213728185 0                0                0                0                48.5142650699923 -0.168732846612263 

73.8                           0.0782033387550384 154.864651393092 0.729064384528264 -80.1914359454696 0.729064384528264 -80.1914359454696 0.0460889680699491 176.602262858466 
! Gamma         0.278476707627093 1153.29605685604 0                0                0                0                12.959155498036  2453.14571646383 
! Port Impedance513.616712408712 0.0679125850174194 0                0                0                0                48.5135359337654 -0.168602700613914 

73.9                           0.0827619900805738 153.179906812999 0.730633779831647 -85.8507964343158 0.730633779831647 -85.8507964343158 0.0476456690022831 172.778998781539 
! Gamma         0.278151545599792 1156.10571658534 0                0                0                0                12.9710786766548 2456.54486540584 
! Port Impedance513.062710963578 0.0674296182416296 0                0                0                0                48.5128104579219 -0.168472787193278 

74                             0.08685645324134 151.256629399802 0.732023019530592 -91.4818160365821 0.732023019530592 -91.4818160365821 0.0492516319423542 168.456243411458 
! Gamma         0.277829065935409 1158.91235522831 0                0                0                0                12.9829977218925 2459.9442276415  
! Port Impedance512.512731754677 0.0669516488050938 0                0                0                0                48.5120886375363 -0.168343105576041 

74.1                           0.0905102376024398 149.153390620896 0.733241485402033 -97.085764855809 0.733241485402033 -97.085764855809 0.0508665434114606 163.722748183849 
! Gamma         0.277509240899973 1161.7159946807  0                0                0                0                12.9949126411402 2463.3438031138  
! Port Impedance511.966731689401 0.0664786057692995 0                0                0                0                48.511370467699  -0.168213654991222 

74.2                           0.0937541133520175 146.908403027676 0.734299056819992 -102.663632462509 0.734299056819992 -102.663632462509 0.0524684968729283 158.652245818056 
! Gamma         0.277192043149733 1164.51665660413 0                0                0                0                13.0068234412925 2466.7435917659  
! Port Impedance511.424668296028 0.0660104194913399 0                0                0                0                48.5106559435157 -0.168084434671155 

74.3                           0.0966276500877532 144.547195712708 0.735206535543581 -108.216173603878 0.735206535543581 -108.216173603878 0.054048024691601 153.302214773552 
! Gamma         0.276877445724146 1167.31436242941 0                0                0                0                13.0187301298728 2470.14359353965 
! Port Impedance510.886499712178 0.0655470215736252 0                0                0                0                48.5099450601071 -0.167955443851472 

74.4                           0.0991809145647244 142.089776868691 0.735975906973151 -113.743950693239 0.735975906973151 -113.743950693239 0.055603241963264 147.714950992573 
! Gamma         0.276565422039024 1170.10913335991 0                0                0                0                13.0306327139977 2473.54380837751 
! Port Impedance510.352184673907 0.0650883448469631 0                0                0                0                48.5092378126092 -0.167826681771081 

74.5                           0.101471781544391 139.558144705403 0.736620432199136 -119.247371191773 0.736620432199137 -119.247371191773 0.0571359556167661 141.919566386587 
! Gamma         0.276255945879832 1172.90099037476 0                0                0                0                13.0425312007972 2476.94423622129 
! Port Impedance509.821682504864 0.0646343233420482 0                0                0                0                48.5085341961728 -0.167698147672154 

74.6                           0.10355390332614 136.981579099388 0.737154553413117 -124.726718389664 0.737154553413117 -124.726718389664 0.0586485196231113 135.934262239407 
! Gamma         0.275948991395124 1175.68995423204 0                0                0                0                13.0544255973849 2480.34487701253 
! Port Impedance509.294953105726 0.0641848922633498 0                0                0                0                48.5078342059633 -0.167569840800119 

74.7                           0.105458402763656 134.394359093488 0.737593575745592 -130.182175251988 0.737593575745592 -130.182175251988 0.0601412411256088 129.768627513802 
! Gamma         0.275644533090131 1178.47604547192 0                0                0                0                13.0663159108434 2483.74573069245 
! Port Impedance508.771956943853 0.0637399879637375 0                0                0                0                48.5071378371607 -0.16744176040369 

74.8                           0.10718499093721 131.825185008808 0.737953062408379 -135.613843876706 0.737953062408379 -135.613843876706 0.0616102108455045 123.425911111217 
! Gamma         0.275342545820475 1181.25928441975 0                0                0                0                13.0782021482244 2487.146797202   
! Port Impedance508.252655043178 0.0632995479197559 0                0                0                0                48.5064450849594 -0.167313905735116 

74.9                           0.108713962194332 129.287506710522 0.738247860488533 -141.021769371251 0.738247860488532 -141.021769371251 0.0630455241551729 116.90529863718  
! Gamma         0.275043004786029 1184.03969118905 0                0                0                0                13.0900843165482 2490.54807648181 
! Port Impedance507.737008974307 0.0628635107075259 0                0                0                0                48.5057559445663 -0.16718627605025 

75                             0.110028052027293 126.779493859538 0.738490708255119 -146.40598845545 0.738490708255118 -146.40598845545 0.0644299673943046 110.204234605931 
! Gamma         0.274745885524902 1186.81728568448 0                0                0                0                13.1019624228037 2493.9495684722  
! Port Impedance507.224980844833 0.0624318159792544 0                0                0                0                48.5050704112037 -0.167058870602944 

75.1                           0.111125708008969 124.290949496181 0.738690570644402 -151.766638744255 0.738690570644401 -151.766638744254 0.0657383543673485 103.320792237631 
! Gamma         0.274451163907548 1189.59208760476 0                0                0                0                13.113836473949  2497.35127311322 
! Port Impedance506.716533289866 0.0620044044403336 0                0                0                0                48.5043884801115 -0.166931688657254 

75.2                           0.112021872688539 121.809408838637 0.738851365662165 -157.104171209414 0.738851365662164 -157.104171209414 0.0669377837739223 96.256016710169  
! Gamma         0.274158816131014 1192.36411644555 0                0                0                0                13.1257064769113 2500.75319034461 
! Port Impedance506.211629462751 0.0615812178270137 0                0                0                0                48.503710146538  -0.166804729478517 

75.3                           0.112743220366828 119.321824053755 0.738972555667475 -162.419668170703 0.738972555667474 -162.419668170703 0.0679891049761094 89.0160675913692 
! Gamma         0.273868818713289 1195.13339150222 0                0                0                0                13.1375724385872 2504.15532010581 
! Port Impedance505.710233025997 0.0611621988846323 0                0                0                0                48.5030354057462 -0.166677992333888 

75.4                           0.113323104361682 116.812066395277 0.739053376242665 -167.715138480377 0.739053376242664 -167.715138480377 0.0688497731125674 81.6138877080093 
! Gamma         0.273581148487793 1197.89993187265 0                0                0                0                13.1494343658428 2507.55766233598 
! Port Impedance505.212308142389 0.0607472913463842 0                0                0                0                48.5023642530131 -0.166551476493905 

75.5                           0.113794992290885 114.254633032426 0.739100513481255 -172.99349840623 0.739100513481255 -172.99349840623 0.0694780102473528 74.070069913579  
! Gamma         0.273295782597962 1200.66375645992 0                0                0                0                13.1612922655138 2510.96021697395 
! Port Impedance504.717819466293 0.0603364399126166 0                0                0                0                48.5016966836288 -0.166425181232277 

75.6                           0.114173954550622 111.604328450388 0.739134668008077 -178.258013485103 0.739134668008077 -178.258013485103 0.0698377949800415 66.4126278549965 
! Gamma         0.273012698491964 1203.424883975   0                0                0                0                13.1731461444059 2514.36298395831 
! Port Impedance504.226732135142 0.0599295902306348 0                0                0                0                48.5010326928965 -0.166299105825802 

75.7                           0.114398871305459 108.787945908829 0.739189702026384 176.488561340659 0.739189702026384 176.488561340659 0.0699038020243832 58.6755322540692 
! Gamma         0.272731873917508 1206.18333293934 0                0                0                0                13.1849960092948 2517.76596322731 
! Port Impedance503.739011761101 0.0595266888750033 0                0                0                0                48.5003722761322 -0.166173249554336 

75.8                           0.114209674992867 105.738287134448 0.739303891221541 171.24451879021  0.739303891221542 171.24451879021  0.0696652012773864 50.8961328555447 
! Gamma         0.272453286916773 1208.93912168748 0                0                0                0                13.1968418669267 2521.16915471895 
! Port Impedance503.254624422902 0.0591276833283292 0                0                0                0                48.4997154286649 -0.166047611700767 

75.9                           0.113142370583222 102.553718684737 0.739510193898605 166.009076253103 0.739510193898604 166.009076253103 0.0691273709255256 43.1118692952613 
! Gamma         0.272176915821435 1211.69226836955 0                0                0                0                13.2086837240193 2524.57255837091 