! Touchstone file exported from HFSS 2020.1.3
!        File:           /home/erdoel/scratch/P2S30/WR12_SIW_MS_Transition_1.aedt
!        Generated:      8:31:25 AM  Feb 20, 2021
!        Design:         Design1_Al_SR_Simple1_er307_back2back
!        Project:        WR12_SIW_MS_Transition_1
!        Setup:          Setup1
!        Solution:       Sweep
!
! Variables:
!        T_L2 = 35um
!        fil = 0.3mm
!        hm = 0.36mm
!        hsub = 0.127mm
!        hwg = 1.55mm
!        l1 = 1.05mm
!        lcav = 1.92mm
!        len50 = 12.805mm
!        lt = 0.7mm
!        offx = 0um
!        offy = 0um
!        rvia = 0.075mm
!        s1 = 1.33mm
!        shift = 20um
!        sl = 3.1mm
!        sy = 0.65mm
!        th = 35um
!        w1 = 1.17mm
!        w50 = 300um
!        wcav = 3.45mm
!        wm = 1.9mm
!        wslot = 1.5mm
!        wt = 0.6mm
!        wwg = 3.1mm
!
!Data is not renormalized
# GHZ S MA
! Terminal data exported
! Port[1] = WG
! Port[2] = WG1
70                             0.793108159927292 -160.726326502736 0.0423961435508313 -81.5974284582491 0.0423961435508313 -81.5974284582491 0.792998523978501 -160.612806524849 
! Gamma         0.293001798729598 1044.04529449968 0                0                0                0                0.293075194636612 1044.04659677315 
! Port Impedance538.162743267182 0.0908255109384094 0                0                0                0                538.160486744085 0.0908294007555991 

70.1                           0.78502619295722 -165.806476130344 0.0348257766652438 -86.3619054978425 0.034825776665243 -86.3619054978459 0.784981287394042 -165.675099761663 
! Gamma         0.292549129859883 1046.98870037995 0                0                0                0                0.292622687814405 1046.98999939655 
! Port Impedance537.416405624153 0.0900833654203536 0                0                0                0                537.414155509784 0.0900874762753783 

70.2                           0.77591169758697 -171.114858973022 0.0289176739510265 -85.35144633542  0.0289176739510249 -85.3514463354222 0.775975125613731 -170.96775618804 
! Gamma         0.292100576176706 1049.9280387485  0                0                0                0                0.292174295702848 1049.92933453164 
! Port Impedance536.676331680216 0.0893502395878487 0                0                0                0                536.674087904883 0.0893545708673357 

70.3                           0.765266580039504 -176.659395871925 0.0252927505200608 -79.4024681413635 0.0252927505200598 -79.4024681413637 0.76546554518801 -176.498138787114 
! Gamma         0.291656087877845 1052.86334367113 0                0                0                0                0.291729968503793 1052.86463624394 
! Port Impedance535.942443057362 0.0886259827193671 0                0                0                0                535.940205552447 0.0886305338190691 

70.4                           0.75255349471845 177.553041834068 0.0241072768507923 -69.9751111860933 0.024107276850792 -69.9751111860928 0.752904068935035 177.727543386137 
! Gamma         0.291215615986503 1055.7946487883  0                0                0                0                0.291289657244249 1055.79593817364 
! Port Impedance535.214662702304 0.0879104473019361 0                0                0                0                535.212431400243 0.0879152176265559 

70.5                           0.737188061103797 171.517612511972 0.0256111512695178 -59.544329028234 0.0256111512695178 -59.5443290282342 0.737700499010671 171.705163464888 
! Gamma         0.290779112333689 1058.72198732232 0                0                0                0                0.290853313758917 1058.7232735428  
! Port Impedance534.492914858154 0.0872034889481956 0                0                0                0                534.49068969241  0.0872084779112175 

70.6                           0.718529215500137 165.23341926324  0.0301040863184808 -51.0503945405238 0.0301040863184809 -51.0503945405241 0.71921311402007 165.434506494324 
! Gamma         0.290346529541155 1061.64539208439 0                0                0                0                0.290420890673183 1061.64667516235 
! Port Impedance533.777125036806 0.0865049663159747 0                0                0                0                533.774905941854 0.0865101733395009 

70.7                           0.695870125073575 158.707450900849 0.0378553591083937 -46.3007040973384 0.0378553591083936 -46.3007040973387 0.696738946188582 158.923088536974 
! Gamma         0.289917821004812 1064.56489548144 0                0                0                0                0.289992341386541 1064.56617543895 
! Port Impedance533.067219992058 0.085814741030302 0                0                0                0                533.065006903362 0.0858201655448942 

70.8                           0.668440316408123 151.962664483727 0.049208144396819 -45.5880467769385 0.0492081443968188 -45.5880467769386 0.669514540793061 152.194073014584 
! Gamma         0.289492940878568 1067.48052952284 0                0                0                0                0.289567620056439 1067.48180638174 
! Port Impedance532.363127693406 0.0851326776077625 0                0                0                0                532.360920547399 0.0851383190522877 

70.9                           0.635449375498901 145.05398420593  0.0646670593992892 -48.4959550798493 0.0646670593992892 -48.4959550798494 0.636757387634195 145.302032874322 
! Gamma         0.289071844058587 1070.39232582706 0                0                0                0                0.289146681582542 1070.39359960891 
! Port Impedance531.664777300511 0.0844586433831216 0                0                0                0                531.662576034578 0.0844645012046021 

71                             0.596242040381993 138.097880307869 0.0848365496475137 -54.528801357526 0.0848365496475138 -54.528801357526 0.597817763855883 138.362143975325 
! Gamma         0.288654486167942 1073.30031562801 0                0                0                0                0.288729481591616 1073.30158635414 
! Port Impedance530.972099138323 0.0837925084381376 0                0                0                0                530.969903690778 0.0837985820916041 

71.1                           0.550691892029953 131.320210304986 0.110198941470279 -63.2960341285398 0.110198941470279 -63.2960341285398 0.552567965291413 131.597306621379 
! Gamma         0.288240823541631 1076.20452978145 0                0                0                0                0.288315976421394 1076.20579747297 
! Port Impedance530.285024672821 0.0831341455324875 0                0                0                0                530.282834982893 0.0831404344808364 

71.2                           0.499973686909167 125.111675994384 0.14072978889293 -74.4761735384253 0.14072978889293 -74.4761735384253 0.502167811011192 125.392299702144 
! Gamma         0.287830813212318 1079.10499877108 0                0                0                0                0.287906123108333 1079.10626344883 
! Port Impedance529.603486487377 0.08248343003674 0                0                0                0                529.601302495191 0.0824899337505877 

71.3                           0.447596387098187 120.024983363429 0.175441168705743 -87.7132345611497 0.175441168705743 -87.7132345611496 0.450086093040899 120.289558907096 
! Gamma         0.287424412894996 1082.00175271467 0                0                0                0                0.287499879371078 1082.00301439927 
! Port Impedance528.927418259739 0.081840239868337 0                0                0                0                528.925239906266 0.0818469578248356 

71.4                           0.39972716513345 116.550954102783 0.212179643942567 -102.527796988398 0.212179643942567 -102.527796988398 0.40241271133349 116.767931875746 
! Gamma         0.287021580974859 1084.89482136995 0                0                0                0                0.287097203597727 1084.89608008179 
! Port Impedance528.256754739411 0.0812044554231273 0                0                0                0                528.254581966565 0.0812113871100942 

71.5                           0.36298395806239 114.579543502751 0.248103389573708 -118.31337021472 0.248103389573708 -118.31337021472 0.365672747436204 114.71778384376  
! Gamma         0.286622276492389 1087.7842341404  0                0                0                0                0.286698054832088 1087.78548989964 
! Port Impedance527.591431726011 0.0805759595247396 0                0                0                0                527.589264476478 0.0805831044341054 

71.6                           0.339835644309589 113.065017407239 0.280767317093648 -134.444649388868 0.280767317093648 -134.444649388868 0.342312342736849 113.120016024763 
! Gamma         0.286226459130693 1090.67002008098 0                0                0                0                0.286302392760487 1090.67127290755 
! Port Impedance526.931386047647 0.0799546373543467 0                0                0                0                526.929224264963 0.0799619949863067 

71.7                           0.32649768954923 110.687815619505 0.309006433432303 -150.426977734063 0.309006433432303 -150.426977734063 0.328642136880639 110.687387474851 
! Gamma         0.285834089202566 1093.55220790367 0                0                0                0                0.285910177698894 1093.5534578173  
! Port Impedance526.276555540186 0.0793403763981912 0                0                0                0                526.274399168703 0.0793479462600198 

71.8                           0.316356599695061 106.807735059863 0.332957915484957 -165.977437755936 0.332957915484957 -165.977437755936 0.318170687853795 106.787446149783 
! Gamma         0.285445127637929 1096.43082598294 0                0                0                0                0.285521370580368 1096.43207300312 
! Port Impedance525.626879026906 0.0787330663903785 0                0                0                0                525.62472801177  0.0787408479963042 

71.9                           0.304252965494791 101.523825429375 0.353462784635887 178.995420821783 0.353462784635887 178.995420821783 0.305796835571747 101.508781659574 
! Gamma         0.285059535971579 1099.30590236109 0                0                0                0                0.285135932942802 1099.30714650712 
! Port Impedance524.982296298651 0.078132599258333 0                0                0                0                524.980150585793 0.0781405921294184 

72                             0.287715451063116 95.2241790143361 0.371463240753968 164.463867027334 0.371463240753969 164.463867027334 0.289051142811593 95.2293162867583 
! Gamma         0.284677276331228 1102.17746475353 0                0                0                0                0.284753826916971 1102.17870604448 
! Port Impedance524.342748094484 0.0775388690698118 0                0                0                0                524.340607630601 0.077547072733837 

72.1                           0.266244193261961 88.2971531931253 0.38768957493907 150.349986245794 0.38768957493907 150.349986245794 0.267421150665322 88.3337664375456 
! Gamma         0.284298311425836 1105.04554055385 0                0                0                0                0.28437501521486 1105.0467790086  
! Port Impedance523.708176082794 0.0769517719814232 0                0                0                0                523.706040815339 0.0769601859727723 

72.2                           0.240415295291765 81.0641913381349 0.402594363068606 136.569418007582 0.402594363068607 136.569418007582 0.241480049713627 81.1446140782097 
! Gamma         0.283922604534224 1107.91015683892 0                0                0                0                0.283999461118277 1107.91139247615 
! Port Impedance523.078522842874 0.0763712061886015 0                0                0                0                523.076392720037 0.0763798300481503 

72.3                           0.211339193023174 73.8009390853327 0.416405922165146 123.051728428871 0.416405922165148 123.051728428871 0.212346752928209 73.9396218058208 
! Gamma         0.28355011949395 1110.7713403738  0                0                0                0                0.283627128467734 1110.77257321197 
! Port Impedance522.453731846924 0.0757970718769889 0                0                0                0                522.451606817623 0.0758059051519965 

72.4                           0.180379874943174 66.7711261613193 0.429212470337684 109.745997751715 0.429212470337686 109.745997751715 0.181393868824424 66.9824662665059 
! Gamma         0.283180820689812 1113.62911761657 0                0                0                0                0.283257981651594 1113.63034767395 
! Port Impedance521.833747442499 0.0752292711751818 0                0                0                0                521.831627456365 0.0752383134191834 

72.5                           0.14896930420069 60.2546277314065 0.441036322795499 96.618924538135  0.441036322795501 96.6189245381349 0.150049113013642 60.54849979357   
! Gamma         0.282814673046323 1116.48351472309 0                0                0                0                0.282891985595471 1116.48474201775 
! Port Impedance521.21851483537  0.0746677081087943 0                0                0                0                521.21639984273  0.074676958881497 

72.6                           0.118438079517054 54.5803180734026 0.451884811428636 83.6500747900689 0.451884811428637 83.6500747900689 0.119620707096922 54.9562345687507 
! Gamma         0.282451642011504 1119.33455755163 0                0                0                0                0.282529105751887 1119.33578210147 
! Port Impedance520.607980072783 0.0741122885558001 0                0                0                0                520.605870024654 0.0741217474229806 

72.7                           0.0898700395837345 50.2023802381392 0.461777178859929 70.8268659514355 0.461777178859928 70.8268659514353 0.0911577922704683 50.6413591470556 
! Gamma         0.28209169355233 1122.18227166746 0                0                0                0                0.282169308090162 1122.18349349018 
! Port Impedance520.002090027129 0.0735629202031088 0                0                0                0                519.999984875202 0.0735725867365134 

72.8                           0.064034131992123 47.9358251913278 0.470752294322291 58.140570500925  0.47075229432229 58.1405705009249 0.0653939971259177 48.380319070563  
! Gamma         0.281734794142276 1125.0266823473  0                0                0                0                0.281812559086497 1125.02790146042 
! Port Impedance519.400792379984 0.0730195125043396 0                0                0                0                519.39869207661  0.0730293862815866 

72.9                           0.0414830244971772 49.8139919877376 0.478864275571365 45.5837922091412 0.478864275571363 45.5837922091412 0.0428507904737266 50.0802673457817 
! Gamma         0.281380910752127 1127.86781458371 0                0                0                0                0.281458825710773 1127.86903100459 
! Port Impedance518.804035606528 0.0724819766387538 0                0                0                0                518.80194010471  0.0724920572432377 

73                             0.0232107367055018 63.0353494856016 0.486173148402108 33.1493403220625 0.486173148402106 33.1493403220626 0.0244425702849601 62.2791960848272 
! Gamma         0.281030010840568 1130.70569308941 0                0                0                0                0.281108075432931 1130.70690683507 
! Port Impedance518.21176896033  0.0719502254713098 0                0                0                0                518.209678213707 0.0719605124921076 

73.1                           0.0144621282756159 110.380207122725 0.492736173834133 20.8301302261897 0.492736173834131 20.8301302261899 0.0148729709266495 106.251346693981 
! Gamma         0.280682062344988 1133.54034230145 0                0                0                0                0.280760276188827 1133.54155338897 
! Port Impedance517.623942458477 0.0714241735138042 0                0                0                0                517.621856421319 0.0714346665455836 

73.2                           0.0217472187060119 154.310043671173 0.498603167311708 8.61963024739451 0.498603167311706 8.61963024739481 0.0212385906374719 152.065445401928 
! Gamma         0.280337033672488 1136.37178638542 0                0                0                0                0.280415396386165 1136.37299483157 
! Port Impedance517.04050686706  0.0709037368870667 0                0                0                0                517.03842549425  0.0709144355299968 

73.3                           0.0340094967100494 166.998769323894 0.503816763231723 -3.48759449521944 0.503816763231721 -3.48759449521904 0.0333677949028234 166.096210359207 
! Gamma         0.279994893691098 1139.20004923944 0                0                0                0                0.280073404896883 1139.20125506085 
! Port Impedance516.461413686982 0.0703888332841756 0                0                0                0                516.459336934009 0.0703997371438391 

73.4                           0.046433553129157 170.287881801809 0.508416669181473 -15.4955706875185 0.508416669181471 -15.4955706875181 0.0458497689398031 169.833999401087 
! Gamma         0.279655611721191 1142.02515449819 0                0                0                0                0.279734271044086 1142.02635771132 
! Port Impedance515.886615140099 0.0698793819346615 0                0                0                0                515.884542963046 0.0698904906219682 

73.5                           0.0584326873594097 170.342026797355 0.512445779065993 -27.4070066368915 0.512445779065993 -27.4070066368912 0.0579525744622745 170.065596012743 
! Gamma         0.279319157527098 1144.84712553682 0                0                0                0                0.27939796459471 1144.84832615794 
! Port Impedance515.316064155672 0.0693753035696688 0                0                0                0                515.313996511206 0.0693866167007719 

73.6                           0.0700023090193879 168.83581576027  0.515955651519564 -39.2237888729303 0.515955651519564 -39.2237888729302 0.069638359765735 168.63553454949  
! Gamma         0.278985501308901 1147.66598547473 0                0                0                0                0.279064455751411 1147.66718351998 
! Port Impedance514.749714357132 0.0688765203880471 0                0                0                0                514.747651202494 0.0688880375842608 

73.7                           0.0811723977833977 166.342442039656 0.519009247183742 -50.947756683246 0.519009247183742 -50.9477566832459 0.0809281378893935 166.172105257515 
! Gamma         0.278654613694421 1150.48175717941 0                0                0                0                0.27873371514463 1150.48295266474 
! Port Impedance514.187520049142 0.068382956023342 0                0                0                0                514.185461342135 0.0683946769110604 

73.8                           0.0918987190410545 163.096264114019 0.521679761466897 -62.5815436444595 0.521679761466897 -62.5815436444596 0.0917743494264091 162.930269506132 
! Gamma         0.278326465731382 1153.29446327009 0                0                0                0                0.278405713826785 1153.29565621131 
! Port Impedance513.629436204951 0.0678945355116588 0                0                0                0                513.627381903934 0.0679064597222772 

73.9                           0.102040167897946 159.21654852582  0.524045579775444 -74.1292575807611 0.524045579775444 -74.1292575807613 0.102031594508728 159.037849456068 
! Gamma         0.278001028879745 1156.10412612135 0                0                0                0                0.27808042326275 1156.105316534   
! Port Impedance513.075418454032 0.0674111852603734 0                0                0                0                513.073368517907 0.0674233124302101 

74                             0.111365057100611 154.787209909744 0.526182469917842 -85.5968140456811 0.52618246991784 -85.5968140456812 0.111460654986193 154.583418936498 
! Gamma         0.277678275004221 1158.91076786673 0                0                0                0                0.277757815299645 1158.9119557664  
! Port Impedance512.525423069999 0.0669328330176636 0                0                0                0                512.523377458204 0.066945162787884 

74.1                           0.119573914262215 149.888687775979 0.5281548321904  -96.9918254794087 0.528154832190398 -96.9918254794088 0.119752223985815 149.651570200159 
! Gamma         0.277358176366941 1161.71441040217 0                0                0                0                0.277437862224708 1161.71559580417 
! Port Impedance511.979406958791 0.066459407842837 0                0                0                0                511.977365631289 0.0664719398593806 

74.2                           0.126334725105616 144.611005639963 0.530008028443555 -108.323052437507 0.530008028443553 -108.323052437507 0.126565580714594 144.337082883854 
! Gamma         0.277040705620292 1164.51507538947 0                0                0                0                0.277120536685783 1164.51625830897 
! Port Impedance511.437327647115 0.0659908400774326 0                0                0                0                511.435290564388 0.0660035739909668 

74.3                           0.13132632398475 139.058336356593 0.531763546380669 -119.599519150984 0.531763546380667 -119.599519150984 0.131576372682174 138.749160877109 
! Gamma         0.276725835799912 1167.31278425966 0                0                0                0                0.276805811720506 1167.31396471168 
! Port Impedance510.899143271156 0.0655270613170714 0                0                0                0                510.897110394217 0.065539997315793 

74.4                           0.134283034236108 133.34954280315  0.533418161016078 -130.829464830032 0.533418161016076 -130.829464830032 0.134524288837865 133.01073329461  
! Gamma         0.276413540317832 1170.10755821627 0                0                0                0                0.276493660743171 1170.10873621569 
! Port Impedance510.364812565519 0.0650680043840359 0                0                0                0                510.362783855787 0.0650811410616688 

74.5                           0.135032148979328 127.617505115566 0.534947485334875 -142.019335195872 0.534947485334874 -142.019335195872 0.135250089432062 127.256176999638 
! Gamma         0.276103792955773 1172.89941823862 0                0                0                0                0.276184057537786 1172.90059380018 
! Port Impedance509.83429485243  0.0646136033005495 0                0                0                0                509.832270271927 0.0646269408543089 

74.6                           0.133517786013133 122.009846912082 0.536313485395034 -153.173013424611 0.536313485395033 -153.173013424611 0.133714829105511 121.630621522418 
! Gamma         0.275796567858584 1175.68838508498 0                0                0                0                0.275876976251479 1175.68955822326 
! Port Impedance509.307550031161 0.0641637932627283 0                0                0                0                509.305529542347 0.0641773313612586 

74.7                           0.129810299861219 116.693789020456 0.537474782564007 -164.291448515911 0.537474782564006 -164.291448515911 0.130001668935859 116.293988370044 
! Gamma         0.275491839527828 1178.47447929571 0                0                0                0                0.275572391388067 1178.47565002516 
! Port Impedance508.784538567694 0.0637185106151717 0                0                0                0                508.782522133503 0.0637322489314476 

74.8                           0.12410769897649 111.867717282079 0.538397997770192 -175.372769010012 0.538397997770192 -175.372769010012 0.124309126820598 111.432631653911 
! Gamma         0.275189582815496 1181.25772119631 0                0                0                0                0.27527027780178 1181.25888953125 
! Port Impedance508.265221484597 0.0632776928262028 0                0                0                0                508.263209068434 0.0632916310375644 

74.9                           0.116741496390107 107.781060009238 0.539068140683225 173.587116298733 0.539068140683225 173.587116298733 0.116950546696407 107.280601562059 
! Gamma         0.274889772917865 1184.03813090049 0                0                0                0                0.274970610691109 1184.03929685508 
! Port Impedance507.749560351138 0.0628412784638124 0                0                0                0                507.747551916865 0.0628554162519328 

75                             0.108202098902456 104.760317919005 0.53949620496402 162.593512387168 0.53949620496402 162.593512387168 0.108376702317981 104.149707195624 
! Gamma         0.274592385369483 1186.81572831309 0                0                0                0                0.274673365592793 1186.81689190135 
! Port Impedance507.237517273591 0.0624092071722814 0                0                0                0                507.235512785522 0.062423544223018 

75.1                           0.0991959753420553 103.22634297891  0.539722677963302 151.651666283176 0.539722677963302 151.651666283176 0.0992362521958206 102.456986658653 
! Gamma         0.274297396037282 1189.59053313299 0                0                0                0                0.274378518375936 1189.59169436884 
! Port Impedance506.729054885765 0.0619814196493013 0                0                0                0                506.727054308659 0.0619959556525255 

75.2                           0.0907291483559093 103.652161856083 0.539816406081822 140.765381469218 0.539816406081822 140.765381469218 0.0904749442014635 102.704630071644 
! Gamma         0.274004781114816 1192.36256485602 0                0                0                0                0.274086045236238 1192.36372375322 
! Port Impedance506.224136339727 0.0615578576235432 0                0                0                0                506.222139638778 0.0615725922730719 

75.3                           0.0841514601222058 106.347161268278 0.539868758225397 129.935629882153 0.539868758225397 129.935629882153 0.0834203175767551 105.29461712918  
! Gamma         0.273714517116622 1195.13184277772 0                0                0                0                0.27379592269036 1195.1329993499  
! Port Impedance505.722725296722 0.0611384638328157 0                0                0                0                505.720732437555 0.0611533968264135 

75.4                           0.0809747124443796 110.981622330066 0.539982637947861 119.159203071765 0.539982637947861 119.159203071765 0.0796644052360612 110.039072094775 
! Gamma         0.273426580872694 1197.89838599613 0                0                0                0                0.273508127570404 1197.89954025681 
! Port Impedance505.224785918295 0.0607231820028482 0                0                0                0                505.222796866956 0.0607383130422154 

75.5                           0.0822747112455568 116.21553681061  0.540253697000565 108.427455181315 0.540253697000566 108.427455181315 0.0804808328015637 115.647198749189 
! Gamma         0.273140949523083 1200.6622134145  0                0                0                0                0.273222637018502 1200.66336537705 
! Port Impedance504.730282857588 0.0603119568266195 0                0                0                0                504.72829758054  0.0603272856173454 

75.6                           0.0880023489745868 120.249421449371 0.54073680396845 97.7256475133311 0.540736803968451 97.7256475133311 0.0860026025024939 120.157115625802 
! Gamma         0.272857600512599 1203.42334374394 0                0                0                0                0.272939428481526 1203.42449342162 
! Port Impedance504.239181250827 0.0599047339441782 0                0                0                0                504.237199714943 0.059920260195679 

75.7                           0.0969859176005669 121.968035387717 0.541390732663743 87.0351087889837 0.541390732663743 87.0351087889837 0.0950771885626461 122.244257854907 
! Gamma         0.27257651158563 1206.18179550607 0                0                0                0                0.272658479705903 1206.18294291201 
! Port Impedance503.751446708988 0.0595014599229448 0                0                0                0                503.749468881542 0.0595171833483995 

75.8                           0.107605871173248 121.281517246762 0.542027765971483 76.3431073633052 0.542027765971483 76.3431073633052 0.105974821916194 121.747698978287 
! Gamma         0.272297660781078 1208.93758703558 0                0                0                0                0.272379768732542 1208.93873218279 
! Port Impedance503.267045309634 0.0591020822384911 0                0                0                0                503.265071158297 0.0591180025547807 

75.9                           0.118395686524943 118.656910496253 0.542390071488784 65.660378946992  0.542390071488784 65.6603789469921 0.117101266461012 119.171614212385 
! Gamma         0.272021026432936 1211.69073648287 0                0                0                0                0.27210327389186 1211.69187938412 