! Touchstone file exported from HFSS 2020.1.3
!        File:           /home/erdoel/scratch/P2S30/WR12_SIW_MS_Transition_1.aedt
!        Generated:      10:25:16 AM  Feb 20, 2021
!        Design:         Design1_Al_SR_Simple1_er307_withadapter
!        Project:        WR12_SIW_MS_Transition_1
!        Setup:          Setup1
!        Solution:       Sweep
!
! Variables:
!        T_L2 = 35um
!        fil = 0.3mm
!        hm = 0.36mm
!        hsub = 0.127mm
!        hwg = 1.55mm
!        l1 = 1.05mm
!        lcav = 1.92mm
!        len50 = 12.48mm
!        lt = 0.7mm
!        offx = 0um
!        offy = 0um
!        rvia = 0.075mm
!        s1 = 1.33mm
!        shift = 20um
!        sl = 3.1mm
!        sy = 0.65mm
!        th = 35um
!        w1 = 1.17mm
!        w50 = 300um
!        wcav = 3.45mm
!        wm = 1.9mm
!        wslot = 1.5mm
!        wt = 0.6mm
!        wwg = 3.1mm
!
!Data is not renormalized
# GHZ S DB
! Terminal data exported
! Port[1] = _WG
! Port[2] = MS
70                             -2.12689796741272 -162.766710373032 -15.6792525794308 -82.640072465971 -15.6792525794308 -82.640072465971 -6.21308594724575 80.8649835544551 
! Gamma         0.293040523473412 1044.04504839388 0                0                0                0                12.6787030338779 2319.08438314386 
! Port Impedance538.162913262182 0.0908477770090825 0                0                0                0                48.4398708879534 -0.176896324617871 

70.1                           -2.23345437818589 -168.362348065154 -16.1688709178033 -79.4781871901887 -16.1688709178033 -79.4781871901887 -6.29909602401067 70.7441358776539 
! Gamma         0.29258791966058 1046.98845515193 0                0                0                0                12.6910798663763 2322.48722508594 
! Port Impedance537.416574419857 0.0901057235087906 0                0                0                0                48.4410075736943 -0.176756352550196 

70.2                           -2.36833586179495 -174.12795217462 -16.327600053282 -74.6750574881747 -16.327600053282 -74.6750574881749 -6.41316830870295 60.5079724626138 
! Gamma         0.292139430897678 1049.92779439246 0                0                0                0                12.7034510671207 2325.89028795526 
! Port Impedance536.67649928922  0.0893726897797392 0                0                0                0                48.442144329941  -0.1766165311573 

70.3                           -2.53616756336805 179.943976694457 -16.0304065395493 -69.3589468607853 -16.0304065395493 -69.3589468607854 -6.55734034687459 50.1460926481306 
! Gamma         0.291695007383415 1052.86310018132 0                0                0                0                12.7158166483321 2329.29357151694 
! Port Impedance535.942609492058 0.0886485250989804 0                0                0                0                48.4432811389691 -0.176476860005063 

70.4                           -2.74176745514719 173.865512828382 -15.2898057925962 -65.0258169821508 -15.2898057925962 -65.0258169821509 -6.73505141799961 39.6533123062644 
! Gamma         0.2912546001417  1055.79440615906 0                0                0                0                12.7281766222033 2332.69707553684 
! Port Impedance535.214827974885 0.0879330819521571 0                0                0                0                48.4444179831878 -0.176337338665017 

70.5                           -2.99001377058065 167.65390193937  -14.247298167502 -62.7054573468248 -14.247298167502 -62.7054573468249 -6.95085092781149 29.0328965088471 
! Gamma         0.290818161004185 1058.72174554804 0                0                0                0                12.7405310008982 2336.1007997816  
! Port Impedance534.493078980614 0.087226215950561 0                0                0                0                48.4455548451399 -0.176197966714284 

70.6                           -3.28567658095996 161.33191930465  -13.071286189993 -62.6391608721784 -13.071286189993 -62.6391608721785 -7.20993077299516 18.2990646001547 
! Gamma         0.290385642593248 1061.64515115952 0                0                0                0                12.7528797965524 2339.50474401856 
! Port Impedance533.77728802095  0.0865277857507097 0                0                0                0                48.446691707501  -0.176058743735486 

70.7                           -3.63322571032575 154.92787710139  -11.8851033479146 -64.5646275752929 -11.8851033479146 -64.564627575293 -7.51751692037449 7.47828159725938 
! Gamma         0.289956998305421 1064.56465540049 0                0                0                0                12.7652230212727 2342.90890801582 
! Port Impedance533.067381849501 0.0858376529763564 0                0                0                0                48.4478285530794 -0.175919669316471 

70.8                           -4.0366360573777 148.475198236298 -10.7582394902707 -68.066625347635 -10.7582394902707 -68.066625347635 -7.87819608345337 -3.39108894423297 
! Gamma         0.289532182295235 1067.48029028041 0                0                0                0                12.7775606871374 2346.31329154223 
! Port Impedance532.363288435579 0.0851556821428462 0                0                0                0                48.4489653648163 -0.175780743050391 

70.9                           -4.49921828915607 142.011535549817 -9.72310517685404 -72.7539665828595 -9.72310517685404 -72.7539665828595 -8.29529151253507 -14.2609494667833 
! Gamma         0.289111149459473 1070.39208741778 0                0                0                0                12.789892806196  2349.71789436737 
! Port Impedance531.664936938665 0.0844817405837399 0                0                0                0                48.4501021257853 -0.175641964536352 

71                             -5.02350497472854 135.577500809245 -8.79127944398095 -78.308952367413 -8.79127944398094 -78.3089523674131 -8.77041583920558 -25.0772157007927 
! Gamma         0.288693855421831 1073.30007804658 0                0                0                0                12.8022193904693 2353.12271626156 
! Port Impedance530.972257683531 0.0838156983796248 0                0                0                0                48.451238819191  -0.175503333378612 

71.1                           -5.61121768659966 129.215157689024 -7.96361290128517 -84.4857471298855 -7.96361290128515 -84.4857471298855 -9.30330170341035 -35.7844640456543 
! Gamma         0.28828025651795 1076.20429302262 0                0                0                0                12.8145404519493 2356.52775699586 
! Port Impedance530.285182135983 0.0831574282890397 0                0                0                0                48.4523754283696 -0.1753648491864 

71.2                           -6.26332972089103 122.966501302567 -7.23562996640893 -91.0961875040179 -7.23562996640893 -91.0961875040179 -9.8919445716934 -46.3305128195339 
! Gamma         0.287870309780837 1079.10476282968 0                0                0                0                12.8268560025993 2359.93301634206 
! Port Impedance529.603642879225 0.0825068056814415 0                0                0                0                48.4535119367887 -0.175226511574092 

71.3                           -6.98022468251204 116.87217313386  -6.60027369345653 -97.9960594525338 -6.60027369345653 -97.9960594525338 -10.5330112807602 -56.6699963890272 
! Gamma         0.287463972926637 1082.00151758557 0                0                0                0                12.8391660543539 2363.3384940727  
! Port Impedance528.927573590806 0.0818637084721434 0                0                0                0                48.4546483280467 -0.175088320161178 

71.4                           -7.76193761227356 110.970639278382 -6.04931110040225 -105.07465468578 -6.04931110040225 -105.07465468578 -11.2224061774288 -66.7663134916595 
! Gamma         0.287061204340766 1084.89458704808 0                0                0                0                12.8514706191186 2366.74418996101 
! Port Impedance528.256909020148 0.0812280170591592 0                0                0                0                48.4557845858724 -0.1749502745722 

71.5                           -8.60845668612036 105.298005894867 -5.57409495724855 -112.247302755404 -5.57409495724856 -112.247302755404 -11.955866395877 -76.5917903946745 
! Gamma         0.286661963064379 1087.78400062074 0                0                0                0                12.8637697087702 2370.15010378101 
! Port Impedance527.591584966637 0.0805996142618882 0                0                0                0                48.4569206941249 -0.17481237443668 

71.6                           -9.52006191408346 99.888587096678  -5.1660157036487 -119.44998317808 -5.16601570364869 -119.44998317808 -12.7294778917946 -86.1262970476306 
! Gamma         0.286266208781159 1090.66978735857 0                0                0                0                12.8760633351568 2373.55623530739 
! Port Impedance526.931538258245 0.0799783852615815 0                0                0                0                48.458056636793  -0.174674619389067 

71.7                           -10.4976822168301 94.7763100663608 -4.81679254039669 -126.635260014044 -4.81679254039669 -126.635260014044 -13.5400457765209 -95.3547671931256 
! Gamma         0.285873901804409 1093.5519759736  0                0                0                0                12.8883515100972 2376.96258431562 
! Port Impedance526.276706730686 0.079364217543527 0                0                0                0                48.459192397995  -0.174537009068674 

71.8                           -11.5432611344568 89.9970701351303 -4.51866671470044 -133.769046486765 -4.51866671470044 -133.769046486765 -14.3852944129036 -104.264092780621 
! Gamma         0.285485003064252 1096.43059484035 0                0                0                0                12.9006342453815 2380.36915058185 
! Port Impedance525.627029207086 0.0787570008408992 0                0                0                0                48.4603279619783 -0.174399543119624 

71.9                           -12.6601302944426 85.5922635127912 -4.26452404403154 -140.827924252606 -4.26452404403154 -140.827924252606 -15.2639004941681 -112.839756739939 
! Gamma         0.285099474102472 1099.30567200119 0                0                0                0                12.912911552771  2383.77593388299 
! Port Impedance524.982445478143 0.0781566270802166 0                0                0                0                48.461463313119  -0.174262221190794 

72                             -13.8533933274768 81.6139660303743 -4.0479610527238 -147.796879660071 -4.0479610527238 -147.796879660071 -16.1753717831561 -121.062420696421 
! Gamma         0.284717277035207 1102.17723517155 0                0                0                0                12.9251834439977 2387.18293399665 
! Port Impedance524.342896282775 0.0775629903283558 0                0                0                0                48.4625984359217 -0.174125042935756 

72.1                           -15.1303118055771 78.1326648493192 -3.86330581562307 -154.667391467288 -3.86330581562306 -154.667391467288 -17.1197775239759 -128.904559596665 
! Gamma         0.28433837457914 1105.0453117451  0                0                0                0                12.9374499307649 2390.59015070117 
! Port Impedance523.708323289228 0.0769759867410687 0                0                0                0                48.4637333150189 -0.173988008012727 

72.2                           -16.5006367222172 75.2492291357888 -3.70560406715391 -161.43583418442 -3.7056040671539 -161.43583418442 -18.0973175177613 -136.327172669909 
! Gamma         0.283962730013299 1107.90992879875 0                0                0                0                12.9497110247467 2393.9975837756  
! Port Impedance523.078669076657 0.0763955145129567 0                0                0                0                48.464867935171  -0.173851116084508 

72.3                           -17.9766839141328 73.1141854969942 -3.57058066362044 -168.102168533069 -3.57058066362043 -168.102168533069 -19.1076880994207 -143.276631743353 
! Gamma         0.283590307175555 1110.77111309759 0                0                0                0                12.9619667375882 2397.40523299971 
! Port Impedance522.453877117124 0.0758214738288526 0                0                0                0                48.4660022812655 -0.173714366818436 

72.4                           -19.5725412537629 71.9597151134555 -3.45458538284301 -174.668888976204 -3.45458538284301 -174.668888976204 -20.1491666418522 -149.681906751473 
! Gamma         0.283221070451861 1113.62889109977 0                0                0                0                12.9742170809056 2400.81309815399 
! Port Impedance521.833891758051 0.075253766816565 0                0                0                0                48.4671363383168 -0.173577759886328 

72.5                           -21.3006468340537 72.1530911643022 -3.3545304300704 178.859804713051 -3.3545304300704 178.859804713051 -21.2172976933187 -155.452840303792 
! Gamma         0.2828549847655  1116.48328896119 0                0                0                0                12.9864620662858 2404.22117901965 
! Port Impedance521.218658205077 0.0746922975009428 0                0                0                0                48.4682700914661 -0.173441294964426 

72.6                           -23.1608373680083 74.2807732477283 -3.26782522632223 172.478646188075 -3.26782522632223 172.478646188075 -22.3030463113498 -160.481007581201 
! Gamma         0.282492015566702 1119.33433254017 0                0                0                0                12.9987017052869 2407.62947537859 
! Port Impedance520.60812250532  0.0741369717592149 0                0                0                0                48.4694035259805 -0.173304971733346 

72.7                           -25.1093503397186 79.2459153197071 -3.19231236920563 166.18178490606  -3.19231236920563 166.18178490606  -23.3903546084411 -164.646189524332 
! Gamma         0.282132128822534 1122.18204740203 0                0                0                0                13.0109360094378 2411.03798701343 
! Port Impedance520.002231531044 0.073587697277567 0                0                0                0                48.470536627253  -0.173168789878025 

72.8                           -26.9853228233336 88.2067224378993 -3.12620724005651 159.963142620099 -3.12620724005651 159.963142620099 -24.4533467444714 -167.833477911789 
! Gamma         0.281775291007024 1125.02645882352 0                0                0                0                13.0231649902381 2414.44671370751 
! Port Impedance519.400932963699 0.0730443835089148 0                0                0                0                48.4716693808021 -0.173032749087671 

72.9                           -28.4122852076635 101.735879863922 -3.0680426402965 153.816670530284 -3.06804264029651 153.816670530284 -25.454204797586 -169.967071142536 
! Gamma         0.281421469091519 1127.86759179726 0                0                0                0                13.0353886591586 2417.85565524486 
! Port Impedance518.804175278345 0.0725069416318353 0                0                0                0                48.4728017722713 -0.172896849055708 

73                             -28.9166056500166 117.859042428634 -3.01661905944274 147.736529347262 -3.01661905944274 147.736529347262 -26.3440280604633 -171.062565341093 
! Gamma         0.281070630535267 1130.70547103599 0                0                0                0                13.0476070276408 2421.26481141022 
! Port Impedance518.211907728431 0.0719752845106217 0                0                0                0                48.4739337874287 -0.172761089479728 

73.1                           -28.4430572379381 132.274727114656 -2.97096065790053 141.717210371376 -2.97096065790053 141.717210371376 -27.0698467795408 -171.283723061443 
! Gamma         0.280722743276217 1133.54012097684 0                0                0                0                13.059820107097  2424.67418198903 
! Port Impedance517.624080330927 0.0714493266564239 0                0                0                0                48.4750654121665 -0.172625470061436 

73.2                           -27.4318628032113 142.435196771213 -2.93027672997197 135.753611972551 -2.93027672997197 135.753611972551 -27.5888344143777 -170.965325640603 
! Gamma         0.280377775722027 1136.37156578541 0                0                0                0                13.0720279089106 2428.08376676742 
! Port Impedance517.040643851809 0.0709289841894436 0                0                0                0                48.4761966325011 -0.172489990506608 

73.3                           -26.2971598575966 148.618125848603 -2.8939282404391 129.841082699961 -2.8939282404391 129.841082699961 -27.8842039591036 -170.559979225027 
! Gamma         0.280035696741284 1139.19982935988 0                0                0                0                13.0842304444356 2431.49356553225 
! Port Impedance516.461549791866 0.0704141748021483 0                0                0                0                48.477327434572  -0.172354650525031 

73.4                           -25.2307288078896 151.978217010372 -2.86139895522678 123.975439678034 -2.86139895522678 123.975439678034 -27.9720107757874 -170.516064736437 
! Gamma         0.279696475654914 1142.02493533497 0                0                0                0                13.096427724997  2434.90357807105 
! Port Impedance515.886750372843 0.0699048177234753 0                0                0                0                48.478457804642  -0.17221944983046 

73.5                           -24.2889800409172 153.480763956092 -2.83227067763631 118.152968915923 -2.83227067763631 118.152968915923 -27.8933386368112 -171.15926706292 
! Gamma         0.279360082227798 1144.84690708586 0                0                0                0                13.1086197618908 2438.31380417204 
! Port Impedance515.316198523892 0.0694008336839928 0                0                0                0                48.4795877290964 -0.172084388140569 

73.6                           -23.4754168033642 153.763910179427 -2.80620213129932 112.370412600268 -2.80620213129932 112.370412600268 -27.6982806030423 -172.646270878938 
! Gamma         0.279026486660574 1147.66576773201 0                0                0                0                13.1208065663841 2441.72424362415 
! Port Impedance514.749847868337 0.0689021448819909 0                0                0                0                48.4807171944429 -0.1719494651769 

73.7                           -22.7773418826544 153.228894799079 -2.7829110827306 106.624947273534 -2.7829110827306 106.624947273534 -27.4323505699269 -174.991782420719 
! Gamma         0.278695659581639 1150.48154014094 0                0                0                0                13.1329881497051 2445.134896217   
! Port Impedance514.187652710736 0.068408674950472 0                0                0                0                48.4818461873108 -0.171814680664814 

73.8                           -22.1791170447372 152.129336114125 -2.76215936039747 100.914155938094 -2.76215936039747 100.914155938094 -27.1301700299423 -178.125244769939 
! Gamma         0.278367572039408 1153.2942469319  0                0                0                0                13.1451645230689 2448.54576174086 
! Port Impedance513.629568024234 0.0679203489250149 0                0                0                0                48.482974694451  -0.171680034333448 

73.9                           -21.6664292006146 150.629380265518 -2.74374049909696 95.2359964836313 -2.74374049909696 95.2359964836313 -26.8150087204946 178.059151902182 
! Gamma         0.278042195496128 1156.10391047955 0                0                0                0                13.1573356976634 2451.95683998675 
! Port Impedance513.075549438204 0.0674370932124847 0                0                0                0                48.4841027027354 -0.171545525915662 

74                             -21.2274036584935 148.838709784855 -2.72746981741324 89.5887683188342 -2.72746981741324 89.5887683188342 -26.5010076753281 173.671190216046 
! Gamma         0.277719501836476 1158.91055291738 0                0                0                0                13.1695016846295 2455.36813074633 
! Port Impedance512.52555322616  0.0669588355605626 0                0                0                0                48.4852301991565 -0.171411155147996 

74.1                           -20.8526776965894 146.833854395779 -2.71317682297629 83.9710785827068 -2.71317682297629 83.9710785827068 -26.1958945347574 168.809429583931 
! Gamma         0.277399463253733 1161.7141961415  0                0                0                0                13.1816624950877 2458.77963381196 
! Port Impedance511.979536293942 0.0664855050280694 0                0                0                0                48.4863571708269 -0.171276921770622 

74.2                           -20.5351514572029 144.672066279388 -2.70069993344019 78.3818086597595 -2.70069993344019 78.3818086597595 -25.9032661735276 163.555919222021 
! Gamma         0.277082052472093 1164.51486181366 0                0                0                0                13.1938181401295 2462.19134897667 
! Port Impedance511.437456168162 0.0660170319560515 0                0                0                0                48.4874836049791 -0.171142825527297 

74.3                           -20.2695842457284 142.401583818742 -2.68988358762029 72.8200807131798 -2.68988358762029 72.8200807131799 -25.6242452108479 157.975904456737 
! Gamma         0.276767242505266 1167.31257136494 0                0                0                0                13.205968630817  2465.60327603417 
! Port Impedance510.89927098491  0.0655533479396151 0                0                0                0                48.4886094889648 -0.171008866165319 

74.4                           -20.051906129364 140.070401096768 -2.68057786069758 67.2852223267181 -2.68057786069758 67.2852223267181 -25.3585991592996 152.119602667726 
! Gamma         0.276455006765144 1170.10734599892 0                0                0                0                13.2181139781829 2469.01541477885 
! Port Impedance510.3649394787   0.0650943858005243 0                0                0                0                48.4897348102545 -0.17087504343548 

74.5                           -19.8778673556495 137.733432841431 -2.67264059758274 61.7767249447975 -2.67264059758273 61.7767249447974 -25.1054712377709 146.024573684663 
! Gamma         0.276145319033856 1172.89920669494 0                0                0                0                13.2302541932307 2472.42776500577 
! Port Impedance509.834420971664 0.0646400795605392 0                0                0                0                48.4908595564376 -0.170741357092023 

74.6                           -19.7406254069418 135.453332969926 -2.66594167602499 56.2941889261895 -2.66594167602499 56.2941889261895 -24.863853222315 139.718042577425 
! Gamma         0.275838153456735 1175.68817421131 0                0                0                0                13.2423892869346 2475.84032651067 
! Port Impedance509.307675362988 0.0641903644153679 0                0                0                0                48.4919837152212 -0.170607806892595 

74.7                           -19.6279232632468 133.283887338394 -2.66036810736984 50.8372462030988 -2.66036810736984 50.8372462030988 -24.63289542888  133.218957240146 
! Gamma         0.275533484535843 1178.47426908843 0                0                0                0                13.2545192702396 2479.25309908995 
! Port Impedance508.784663118561 0.0637451767092382 0                0                0                0                48.4931072744302 -0.170474392598204 

74.8                           -19.5223546188518 131.230465416209 -2.65582724087396 45.4054543305089 -2.65582724087396 45.4054543305089 -24.4121175436418 126.539762671306 
! Gamma         0.275231287123675 1181.25751165184 0                0                0                0                13.2666441540614 2482.66608254068 
! Port Impedance508.265345260871 0.0633044539101611 0                0                0                0                48.4942302220066 -0.170341113973177 

74.9                           -19.4088562093008 129.219530727338 -2.65224392046655 39.998168131711  -2.65224392046655 39.998168131711  -24.2015604143644 119.687961572056 
! Gamma         0.274931536417013 1184.03792201526 0                0                0                0                13.2787639492866 2486.0792766606  
! Port Impedance507.749683359098 0.0628681345858447 0                0                0                0                48.4953525460092 -0.170207970785112 

75                             -19.2846092980244 127.133349871624 -2.64954763476462 34.6144188387515 -2.64954763476463 34.6144188387514 -24.0019016579323 112.66756646655  
! Gamma         0.274634207950905 1186.81552008358 0                0                0                0                13.2908786667723 2489.49268124811 
! Port Impedance507.237639519433 0.0624361583802094 0                0                0                0                48.4964742346131 -0.170074962804839 

75.1                           -19.1591309624424 124.889086093192 -2.64764951266497 29.2528546131571 -2.64764951266497 29.2528546131571 -23.8145445260092 105.480559265831 
! Gamma         0.274339277592785 1189.59032555571 0                0                0                0                13.3029883173467 2492.90629610227 
! Port Impedance506.729176375603 0.0620084659904881 0                0                0                0                48.4975952761094 -0.169942089806377 

75.2                           -19.0449761627232 122.473436625926 -2.64641630545721 23.9117940653719 -2.64641630545721 23.9117940653719 -23.6416777210837 98.128468477609  
! Gamma         0.274046721536702 1192.36235792751 0                0                0                0                13.3150929118084 2496.3201210228  
! Port Impedance506.224257079593 0.0615849991448971 0                0                0                0                48.4987156589045 -0.16980935156689 

75.3                           -18.9506685650959 119.917446598048 -2.64565433674434 18.5893955115783 -2.64565433674435 18.5893955115783 -23.4862924292706 90.6141487246338 
! Gamma         0.273756516297688 1195.13163649456 0                0                0                0                13.3271924609269 2499.73415581008 
! Port Impedance505.72284529257  0.0611657005808665 0                0                0                0                48.4998353715199 -0.169676747866645 

75.4                           -18.8798763421902 117.262087560898 -2.64511386843071 13.2838722583573 -2.64511386843071 13.2838722583573 -23.3521317256712 82.9437907357296 
! Gamma         0.273468638706228 1197.89818035493 0                0                0                0                13.3392869754425 2503.14840026514 
! Port Impedance505.224905176    0.060750514023822 0                0                0                0                48.5009544025917 -0.169544278488973 

75.5                           -18.8333499563055 114.541585030611 -2.64451306895625 7.99365067168744 -2.64451306895624 7.99365067168743 -23.2435387275623 75.1290885325013 
! Gamma         0.273183065902861 1200.66200841189 0                0                0                0                13.3513764660662 2506.56285418967 
! Port Impedance504.730401382948 0.0603393841665115 0                0                0                0                48.50207274087   -0.169411943220221 

75.6                           -18.8107487485089 111.780835759382 -2.64356993435354 2.71740757660557 -2.64356993435355 2.71740757660554 -23.1651680990505 67.189336913504  
! Gamma         0.272899775332883 1203.42313937659 0                0                0                0                13.3634609434797 2509.97751738599 
! Port Impedance504.239299049566 0.0599322566487  0                0                0                0                48.5031903752187 -0.169279741849714 

75.7                           -18.8117037164666 108.998446656406 -2.64202897380066 -2.54600177297453 -2.64202897380066 -2.54600177297455 -23.1215378017505 59.1530423855142 
! Gamma         0.272618744741163 1206.18159177068 0                0                0                0                13.3755404183351 2513.3923896571  
! Port Impedance503.751563786755 0.0595290780372822 0                0                0                0                48.5043072946152 -0.169147674169435 

75.8                           -18.83630972526  106.211489993933 -2.63967624294389 -7.79766776102827 -2.63967624294389 -7.79766776102827 -23.1164311407401 51.0584621055853 
! Gamma         0.272339952167067 1208.93738392887 0                0                0                0                13.3876149012554 2516.80747080662 
! Port Impedance503.267161672005 0.05912979580752 0                0                0                0                48.5054234881478 -0.169015739975399 

75.9                           -18.8851813586552 103.44174752838  -2.63634401507187 -13.0387478900181 -2.63634401507187 -13.0387478900181 -23.1522138719553 42.9524428780915 
! Gamma         0.272063375939488 1211.69053400149 0                0                0                0                13.3996844028338 2520.22276063882 