! Touchstone file exported from HFSS 2020.1.3
!        File:           /home/erdoel/scratch/P2S30/WR12_SIW_MS_Transition_1.aedt
!        Generated:      9:53:58 AM  Feb 20, 2021
!        Design:         Design1_Al_SR_Simple1_er307_withadapter
!        Project:        WR12_SIW_MS_Transition_1
!        Setup:          Setup1
!        Solution:       Sweep
!
! Variables:
!        T_L2 = 35um
!        fil = 0.3mm
!        hm = 0.36mm
!        hsub = 0.127mm
!        hwg = 1.55mm
!        l1 = 1.05mm
!        lcav = 1.92mm
!        len50 = 20mm
!        lt = 0.7mm
!        offx = 0um
!        offy = 0um
!        rvia = 0.075mm
!        s1 = 1.33mm
!        shift = 20um
!        sl = 3.1mm
!        sy = 0.65mm
!        th = 35um
!        w1 = 1.17mm
!        w50 = 300um
!        wcav = 3.45mm
!        wm = 1.9mm
!        wslot = 1.5mm
!        wt = 0.6mm
!        wwg = 3.1mm
!
!Data is not renormalized
# GHZ S DB
! Terminal data exported
! Port[1] = _WG
! Port[2] = MS
70                             -1.99341631451278 -159.619951653354 -15.0412080068743 89.989445625262  -15.0412080068743 89.989445625262  -6.06518794888616 83.5187760353463 
! Gamma         0.293031670858095 1044.04649637786 0                0                0                0                12.5622149762365 2316.28912923302 
! Port Impedance538.160444643315 0.0908278484594028 0                0                0                0                48.1833695338523 -0.179535125325385 

70.1                           -2.07538625120201 -165.001899595368 -15.7105913525237 91.055612444319  -15.7105913525237 91.055612444319  -6.12348834674994 73.7658450558235 
! Gamma         0.292579071142693 1046.98989904489 0                0                0                0                12.5744609203865 2319.68787355803 
! Port Impedance537.414113453801 0.0900858075586663 0                0                0                0                48.1845277666294 -0.179394274863631 

70.2                           -2.1791338498452 -170.541332514937 -16.2316996192424 94.0722477786427 -16.2316996192424 94.0722477786428 -6.21245429445944 63.777485285493  
! Gamma         0.292130586392723 1049.9292342229  0                0                0                0                12.5867012820988 2323.0868391957  
! Port Impedance536.674045894708 0.0893527859987356 0                0                0                0                48.185686069538  -0.179253576394572 

70.3                           -2.30885808124685 -176.240833126535 -16.4428336672323 98.7923806324944 -16.4428336672323 98.7923806324943 -6.33298176124695 53.5858024599665 
! Gamma         0.29168616680817 1052.86453597742 0                0                0                0                12.5989360734793 2326.48602591298 
! Port Impedance535.940163589077 0.088628633063554 0                0                0                0                48.1868444249301 -0.179113029486014 

70.4                           -2.46924015310368 177.901122358842 -16.2085417015738 104.195147962577 -16.2085417015738 104.195147962577 -6.48607626652933 43.2202745850163 
! Gamma         0.291245763414196 1055.79583794865 0                0                0                0                12.6111653066057 2329.88543347757 
! Port Impedance535.212389484653 0.0879132012455151 0                0                0                0                48.188002815292  -0.178972633711382 

70.5                           -2.66534517235764 171.891217363261 -15.5204277824097 108.798542268775 -15.5204277824097 108.798542268775 -6.67312051270146 32.7078245562861 
! Gamma         0.290809328043678 1058.72317335865 0                0                0                0                12.6233889935278 2333.28506165788 
! Port Impedance534.490647825555 0.0872063461625214 0                0                0                0                48.1891612232431 -0.178832388649652 

70.6                           -2.90246590301166 165.742233098914 -14.5067351136973 111.481781576012 -14.5067351136973 111.481781576012 -6.89607756529422 22.0737751441034 
! Gamma         0.290376813320196 1061.64657501837 0                0                0                0                12.6356071462673 2336.68491022309 
! Port Impedance533.77486412467  0.0865079264775634 0                0                0                0                48.1903196315362 -0.178692293885288 

70.7                           -3.18591016167645 159.473704662248 -13.3368923326946 111.905633957163 -13.3368923326946 111.905633957163 -7.15757491620428 11.3434978594956 
! Gamma         0.28994817264146 1064.56607533447 0                0                0                0                12.6478197768178 2340.08497894311 
! Port Impedance533.064965136764 0.0858178038207317 0                0                0                0                48.191478023057  -0.178552349008185 

70.8                           -3.52074589057601 153.112115793498 -12.1415125455414 110.283627346242 -12.1415125455414 110.283627346242 -7.4608328444757 0.544403231082089 
! Gamma         0.289523360163153 1067.48170631611 0                0                0                0                12.6600268971444 2343.48526758855 
! Port Impedance532.360878832283 0.0851358427135756 0                0                0                0                48.1926363808236 -0.17841255361359 

70.9                           -3.91153249673429 146.690485522654 -10.9967521208259 107.020649567839 -10.9967521208259 107.020649567839 -7.80942822328849 -10.2921927061704 
! Gamma         0.289102330783189 1070.39349958148 0                0                0                0                12.6722285191843 2346.88577593081 
! Port Impedance531.662534371822 0.0844619104957296 0                0                0                0                48.1937946879864 -0.178272907301968 

71                             -4.36207949796172 140.247287227001 -9.93941677725842 102.513508114715 -9.93941677725842 102.513508114715 -8.20691969317019 -21.1298208306631 
! Gamma         0.288685040126366 1073.30148636428 0                0                0                0                12.6844246548461 2350.28650374197 
! Port Impedance530.969862081242 0.0837958772537265 0                0                0                0                48.1949529278279 -0.178133409678686 

71.1                           -4.87527871571322 133.824773492876 -8.98371767792843 97.089282707491  -8.98371767792841 97.0892827074911 -8.65639641463635 -31.926639532293 
! Gamma         0.288271444529407 1076.20569752002 0                0                0                0                12.6966153160101 2353.68745079486 
! Port Impedance530.282793427421 0.0831376157519261 0                0                0                0                48.1961110837626 -0.177994060355709 

71.2                           -5.4530503963008 127.46692615933  -8.1320906869136 91.0027742610308 -8.13209068691359 91.0027742610309 -9.16004062525129 -42.6364364460583 
! Gamma         0.287861501026368 1079.1061635322  0                0                0                0                12.7088005145283 2357.08861686305 
! Port Impedance529.60126099461  0.0824870013654838 0                0                0                0                48.1972691393347 -0.177854858949131 

71.3                           -6.09642682372788 121.217363996607 -7.38105918141403 84.4498815408303 -7.38105918141403 84.4498815408304 -9.71880192912817 -53.2107299653862 
! Gamma         0.287455167334418 1082.00291451833 0                0                0                0                12.7209802622243 2360.4900017208  
! Port Impedance528.925198461386 0.0818439120152924 0                0                0                0                48.1984270782201 -0.177715805079671 

71.4                           -6.80577416495373 115.117582718597 -6.72421514527273 77.5814772916974 -6.72421514527273 77.5814772916975 -10.3322606994763 -63.6015280584826 
! Gamma         0.287052401839966 1084.89598023593 0                0                0                0                12.7331545708931 2363.89160514314 
! Port Impedance528.254540578182 0.0812082281048289 0                0                0                0                48.1995848842258 -0.17757689837355 

71.5                           -7.5811325002788 109.205865855483 -6.15373393674023 70.5141075455791 -6.15373393674023 70.5141075455792 -10.9987122403529 -73.764093758622 
! Gamma         0.286653163585142 1087.78539008827 0                0                0                0                12.7453234523014 2367.29342690578 
! Port Impedance527.58922314537  0.0805798324588432 0                0                0                0                48.2007425412884 -0.177438138461946 

71.6                           -8.42264260877921 103.517122098995 -5.66118811427442 63.3375984177046 -5.66118811427441 63.3375984177046 -11.7154477759777 -83.659055692458 
! Gamma         0.28625741225467 1090.67117313009 0                0                0                0                12.7574869181874 2370.69546678519 
! Port Impedance526.929182991892 0.0799586102638271 0                0                0                0                48.2019000334746 -0.177299524980918 

71.7                           -9.33102920428207 98.0838382582532 -5.23803170510219 56.1204698553266 -5.23803170510218 56.1204698553266 -12.4791632712711 -93.2533835369857 
! Gamma         0.28586510816336 1093.55335807315 0                0                0                0                12.7696449802608 2374.09772455853 
! Port Impedance526.274357954416 0.0793444490102057 0                0                0                0                48.2030573449804 -0.177161057571354 

71.8                           -10.3081205822591 92.9383688646132 -4.87592048165163 48.9139735002512 -4.87592048165164 48.9139735002512 -13.286406643217 -102.520031317063 
! Gamma         0.285476212244585 1096.43197329172 0                0                0                0                12.7817976502027 2377.50020000369 
! Port Impedance525.624686857001 0.0787372384362019 0                0                0                0                48.204214460131  -0.17702273587892 

71.9                           -11.3573909826926 88.1170131688697 -4.56693580774692 41.7553013284975 -4.56693580774691 41.7553013284975 -14.1339790924554 -111.436315278645 
! Gamma         0.285090686035906 1099.30704682789 0                0                0                0                12.7939449396658 2380.90289289927 
! Port Impedance524.980109491259 0.0781368704734009 0                0                0                0                48.2053713633805 -0.176884559554006 

72                             -12.484478145506 83.6668726854067 -4.30373800325316 34.6702716645159 -4.30373800325314 34.6702716645158 -15.0192267389419 -119.98125299038 
! Gamma         0.284708491661309 1102.17860639686 0                0                0                0                12.8060868602741 2384.30580302461 
! Port Impedance524.340566597005 0.0775432391969915 0                0                0                0                48.2065280393111 -0.176746528251668 

72.1                           -13.6974526207486 79.6572963105178 -4.07966076159679 27.6756391041056 -4.07966076159679 27.6756391041056 -15.9401801559375 -128.132128187647 
! Gamma         0.284329591830236 1105.04667939203 0                0                0                0                12.8182234236231 2387.70893015973 
! Port Impedance523.705999843385 0.0769562407571853 0                0                0                0                48.2076844726334 -0.176608641631578 

72.2                           -15.0060750338261 76.1974638851067 -3.88875510693862 20.7810879401354 -3.88875510693862 20.7810879401355 -16.8955100571383 -135.860499471179 
! Gamma         0.283953949825136 1107.91129289008 0                0                0                0                12.8303546412797 2391.11227408538 
! Port Impedance523.076351810391 0.0763757733614248 0                0                0                0                48.2088406481852 -0.176470899357964 

72.3                           -16.4184216414151 73.4538946641071 -3.72579163785059 13.9909323546015 -3.72579163785059 13.9909323546016 -17.8842605975842 -143.127807522728 
! Gamma         0.283581529486006 1110.77247365586 0                0                0                0                12.8424805247823 2394.51583458301 
! Port Impedance522.451565970951 0.0758017371984226 0                0                0                0                48.2099965509321 -0.17633330109956 

72.4                           -17.935095254093 71.6376719487823 -3.58622966655749 7.30553849982089 -3.58622966655748 7.30553849982095 -18.9052947533621 -149.880737791671 
! Gamma         0.283212295200049 1113.63024814728 0                0                0                0                12.8546010856404 2397.91961143479 
! Port Impedance521.831586673319 0.0752340343996089 0                0                0                0                48.2111521659662 -0.176195846529551 

72.5                           -19.5520882055561 70.94661624868   -3.46615953621609 0.722486183490225 -3.46615953621609 0.722486183490253 -19.9563392829901 -156.0466758447  
! Gamma         0.282846211891465 1116.48464251999 0                0                0                0                12.866716335335  2401.32360442358 
! Port Impedance521.21635912395  0.0746725689941121 0                0                0                0                48.2123074785063 -0.176058535325518 

72.6                           -21.280027396163 71.6213279373977 -3.36221743781016 -5.76251460536264 -3.36221743781016 -5.76251460536254 -21.032457220302 -161.530134600617 
! Gamma         0.282483245011233 1119.33568263209 0                0                0                0                12.8788262853186 2404.72781333297 
! Port Impedance520.605829370768 0.0741172468634188 0                0                0                0                48.2134624738973 -0.175921367169387 

72.7                           -23.1378113833443 74.2296772322797 -3.27145142953744 -12.1549851282588 -3.27145142953743 -12.1549851282588 -22.1237359444063 -166.212239877765 
! Gamma         0.282123360527099 1122.18339404867 0                0                0                0                12.8909309470146 2408.13223794722 
! Port Impedance519.999944286823 0.0735679756979021 0                0                0                0                48.2146171376097 -0.175784341747377 

72.8                           -25.0889355061044 79.858578887171  -3.19104327247103 -18.4617051883885 -3.19104327247103 -18.4617051883884 -23.2120607344168 -169.957599912876 
! Gamma         0.281766524913777 1125.02780204625 0                0                0                0                12.9030303318182 2411.53687805132 
! Port Impedance519.398651554343 0.0730246649545871 0                0                0                0                48.2157714552397 -0.175647458749943 

72.9                           -26.9336131372565 89.8976407362302 -3.1175142914561 -24.6950203872466 -3.11751429145612 -24.6950203872467 -24.2672950247564 -172.636053465049 
! Gamma         0.281412705143328 1127.86893161724 0                0                0                0                12.9151244510954 2414.94173343094 
! Port Impedance518.801899649147 0.0724872258160824 0                0                0                0                48.2169254125081 -0.175510717871733 

73                             -28.203874465279 104.739838003351 -3.0473767069437 -30.9192098862332 -3.0473767069439 -30.9192098862332 -25.2444100514605 -174.168530680866 
! Gamma         0.281061868675736 1130.70680747416 0                0                0                0                12.9272133161838 2418.34680387245 
! Port Impedance518.209637825428 0.0719555711506359 0                0                0                0                48.2180789952605 -0.175374118811529 

73.1                           -28.4066319909778 121.425736648405 -3.01318351700735 -37.1139518679527 -3.01318351700719 -37.1139518679509 -26.0851686745799 -174.598949645625 
! Gamma         0.280713983449697 1133.54145405392 0                0                0                0                12.9392969383919 2421.75208916293 
! Port Impedance517.621816100894 0.0714296154732768 0                0                0                0                48.2192321894665 -0.175237661272198 

73.2                           -27.6481258313782 135.15022482106  -2.97345873884703 -43.0681391280769 -2.9734587388469 -43.0681391280768 -26.729058061749 -174.167088480423 
! Gamma         0.280369017873619 1136.3728955219  0                0                0                0                12.9513753289994 2425.15758909014 
! Port Impedance517.038385242239 0.070909274908012 0                0                0                0                48.2203849812196 -0.175101344960643 

73.3                           -26.4745923049676 144.074872622065 -2.93034298753479 -49.0074550465303 -2.93034298753472 -49.0074550465304 -27.133713472306 -173.32023885335 
! Gamma         0.280026940816826 1139.20115577609 0                0                0                0                12.9634484992562 2428.56330344253 
! Port Impedance516.45929675096  0.0703944671510427 0                0                0                0                48.2215373567365 -0.174965169587751 

73.4                           -25.2730277634677 149.080340507237 -2.8912516683282 -54.9132824579124 -2.89125166832816 -54.9132824579124 -27.2941017482803 -172.610955334393 
! Gamma         0.279687721600967 1142.02625845099 0                0                0                0                12.9755164603792 2431.96923200923 
! Port Impedance515.884502849497 0.0698851114349687 0                0                0                0                48.2226893023569 -0.17482913486833 

73.5                           -24.1898238655999 151.472023831513 -2.85628220798163 -60.7783635557825 -2.8562822079816 -60.7783635557826 -27.244901004276 -172.52264591056 
! Gamma         0.279351329991596 1144.84822692157 0                0                0                0                12.9875792235199 2435.37537458009 
! Port Impedance515.313956467685 0.069381128493952 0                0                0                0                48.2238408045428 -0.17469324052096 

73.6                           -23.2556792043601 152.197129293587 -2.82504098210944 -66.6025865522912 -2.82504098210941 -66.6025865522913 -27.0438819380374 -173.343274351959 
! Gamma         0.279017736189879 1147.66708430711 0                0                0                0                12.9996367999378 2438.78173094584 
! Port Impedance514.74761122952  0.0688824405298085 0                0                0                0                48.2249918498849 -0.174557486262448 

73.7                           -22.4622298885401 151.852393773527 -2.79717684890769 -72.3875698867386 -2.79717684890767 -72.3875698867386 -26.750393582589 -175.153843802194 
! Gamma         0.278686910824234 1150.48285347492 0                0                0                0                13.0116892008357 2442.18830089724 
! Port Impedance514.185421440217 0.0683889711790002 0                0                0                0                48.2261424250752 -0.174421871837473 

73.8                           -21.7912856476058 150.807804990496 -2.7724082225903 -78.1352502455881 -2.77240822259028 -78.1352502455882 -26.4119714088748 -177.893752267227 
! Gamma         0.278358824942519 1153.29555704406 0                0                0                0                13.0237364371276 2445.59508422643 
! Port Impedance513.62734207357  0.0679006454805001 0                0                0                0                48.2272925169518 -0.174286396957436 

73.9                           -21.2242769825064 149.297787800566 -2.75050583181492 -83.8474734608529 -2.75050583181491 -83.8474734608529 -26.060913222256 178.563721925483 
! Gamma         0.278033450008898 1156.10521738898 0                0                0                0                13.0357785199664 2449.00208072596 
! Port Impedance513.073328759589 0.0674173898445034 0                0                0                0                48.2284421124607 -0.174151061362304 

74                             -20.7448222685938 147.475671612699 -2.73127493980678 -89.5258773997708 -2.73127493980676 -89.5258773997708 -25.7164647122104 174.359458492541 
! Gamma         0.277710757890945 1158.91185664306 0                0                0                0                13.0478154604083 2452.40929018907 
! Port Impedance512.523337772412 0.0669391320219593 0                0                0                0                48.2295911986705 -0.174015864789562 

74.1                           -20.3390717979666 145.444976057879 -2.7145412676111 -95.1718755174741 -2.71454126761109 -95.1718755174741 -25.3885583974579 169.622147384847 
! Gamma         0.277390720849436 1161.71549670209 0                0                0                0                13.0598472694754 2455.81671240967 
! Port Impedance511.977326018495 0.0664658010748991 0                0                0                0                48.23073976277   -0.173880806980243 

74.2                           -19.9954081438244 143.27749250067  -2.70014037859596 -100.786679350252 -2.70014037859595 -100.786679350252 -25.081161335633 164.458718022143 
! Gamma         0.277073311537407 1164.51615922774 0                0                0                0                13.07187395816   2459.22434718237 
! Port Impedance511.435251025055 0.0659973273475362 0                0                0                0                48.2318877920675 -0.173745887678933 

74.3                           -19.7040240352503 141.023929769698 -2.68790991997201 -106.371336530299 -2.687909919972  -106.371336530299 -24.7947257716647 158.953323416038 
! Gamma         0.276758502991738 1167.31386565087 0                0                0                0                13.0838955374254 2462.63219430241 
! Port Impedance510.897070928774 0.0655336424381151 0                0                0                0                48.2330352739904 -0.173611106633724 

74.4                           -19.4565398598383 138.720302472846 -2.67768422589682 -111.926774044102 -2.67768422589681 -111.926774044102 -24.527825602109 153.169855112434 
! Gamma         0.276446268625693 1170.10863717488 0                0                0                0                13.0959120182061 2466.04025356574 
! Port Impedance510.36274446475  0.0650746791714872 0                0                0                0                48.2341821960851 -0.173476463596174 

74.5                           -19.2457023661926 136.391822492079 -2.6692908959656 -117.453841599676 -2.6692908959656 -117.453841599676 -24.2782007946579 147.155472742528 
! Gamma         0.276136582222172 1172.90049477895 0                0                0                0                13.1079234114076 2469.44852476896 
! Port Impedance509.832230955692 0.0646203715723918 0                0                0                0                48.2353285460162 -0.173341958321258 

74.6                           -19.0651674922776 134.055296376667 -2.6625490314685 -122.95335225458 -2.6625490314685 -122.95335225458 -24.0434101757885 140.944066822734 
! Gamma         0.27582941792717 1175.68945922121 0                0                0                0                13.1199297279067 2472.85700770934 
! Port Impedance509.305490301347 0.0641706548394213 0                0                0                0                48.236474311566  -0.173207590567323 

74.7                           -18.9093594496723 131.720625376472 -2.65726885241021 -128.426118620867 -2.65726885241021 -128.426118620867 -23.8212368176133 134.559280672365 
! Gamma         0.275524750243364 1178.47555104187 0                0                0                0                13.1319309785511 2476.26570218481 
! Port Impedance508.782482968162 0.0637254653196512 0                0                0                0                48.2376194806346 -0.17307336009605 

74.8                           -18.773396130817 129.391785885241 -2.65325244410783 -133.872983646875 -2.65325244410783 -133.872983646875 -23.6099402477922 128.017031967963 
! Gamma         0.275222554023846 1181.25879056633 0                0                0                0                13.1439271741598 2479.67460799396 
! Port Impedance508.263169979168 0.0632847404839139 0                0                0                0                48.2387640412387 -0.172939266672402 

74.9                           -18.6530706463545 127.067548912104 -2.65029540151674 -139.294845434607 -2.65029540151674 -139.294845434607 -23.4084135126269 121.327599519361 
! Gamma         0.274922804465973 1184.03919790813 0                0                0                0                13.1559183255231 2483.08372493606 
! Port Impedance507.747512904083 0.0628484189026993 0                0                0                0                48.2399079815119 -0.172805310064587 

75                             -18.544877830954 124.742129942856 -2.64818915691023 -144.692675891443 -2.64818915691023 -144.692675891443 -23.2162786844203 114.497380152489 
! Gamma         0.27462547710536 1186.81679297198 0                0                0                0                13.167904443402  2486.49305281101 
! Port Impedance507.235473849627 0.0624164402226629 0                0                0                0                48.2410512897038 -0.172671490044012 

75.1                           -18.4460721492732 122.405916659039 -2.64672379440434 -150.067533281494 -2.64672379440433 -150.067533281494 -23.0339381146134 107.530422091114 
! Gamma         0.274330547809993 1189.59159545666 0                0                0                0                13.1798855385291 2489.90259141939 
! Port Impedance506.727015450043 0.0619887451437237 0                0                0                0                48.2421939541795 -0.172537806385239 

75.2                           -18.3547398164954 120.046382909165 -2.64569117391551 -155.420568954751 -2.64569117391551 -155.420568954751 -22.8625877125646 100.429824840671 
! Gamma         0.274037992774467 1192.36362485784 0                0                0                0                13.1918616216079 2493.3123405624  
! Port Impedance506.222100857828 0.0615652753967356 0                0                0                0                48.2433359634196 -0.172404258865947 

75.3                           -18.2698640808663 117.649250999063 -2.64488820743571 -160.753028700516 -2.64488820743571 -160.753028700516 -22.7041909985174 93.1990680261907 
! Gamma         0.273747788514347 1195.13290047096 0                0                0                0                13.2038327033131 2496.72230004193 
! Port Impedance505.720693734653 0.0611459737217156 0                0                0                0                48.2444773060194 -0.172270847266884 

75.4                           -18.1913600539362 115.199904999639 -2.64412015156899 -166.066249301246 -2.64412015156899 -166.066249301246 -22.561407868598 85.8432943238588 
! Gamma         0.273459911860644 1197.89944139391 0                0                0                0                13.2157987942906 2500.1324696605  
! Port Impedance505.222758242475 0.0607307838466119 0                0                0                0                48.2456179706884 -0.172137571371832 

75.5                           -18.120056054361 112.684987108283 -2.64320380147258 -171.361650959007 -2.64320380147258 -171.361650959007 -22.4374699710522 78.370525263119  
! Gamma         0.273174339954413 1200.66326652984 0                0                0                0                13.2277599051574 2503.54284922127 
! Port Impedance504.728259034848 0.0603196504665983 0                0                0                0                48.2467579462501 -0.172004430967562 

75.6                           -18.0576036949118 110.094037217723 -2.64197049215618 -176.640726335503 -2.64197049215618 -176.640726335503 -22.3359959321543 70.7927366787555 
! Gamma         0.272891050241457 1203.42439458972 0                0                0                0                13.2397160465015 2506.95343852806 
! Port Impedance504.237161248399 0.0599125192238782 0                0                0                0                48.2478972216416 -0.171871425843792 

75.7                           -18.006309396453 107.420979695379 -2.64026883322706 178.094973004183 -2.64026883322706 178.094973004183 -22.2607450955977 63.1266715841637 
! Gamma         0.272610020467147 1206.18284409507 0                0                0                0                13.2516672288824 2510.36423738532 
! Port Impedance503.749430494502 0.0595093366879848 0                0                0                0                48.2490357859125 -0.171738555793151 

75.8                           -17.9688945057637 104.665240138312 -2.63796712278972 172.843851914875 -2.63796712278972 172.843851914875 -22.2153180638176 55.3942367161102 
! Gamma         0.27233122867134 1208.93863338045 0                0                0                0                13.2636134628305 2513.77524559816 
! Port Impedance503.265032851109 0.0591100503365634 0                0                0                0                48.2501736282255 -0.171605820611133 

75.9                           -17.9482067778648 101.832302692273 -2.63495540614154 167.6042878915   -2.63495540614154 167.6042878915   -22.2028248654367 47.6223324854187 
! Gamma         0.272054653183415 1211.69178059602 0                0                0                0                13.2755547588475 2517.1864629723  