! Touchstone file exported from HFSS 2020.1.3
!        File:           /home/erdoel/scratch/P2S30/WR12_SIW_MS_Transition_1.aedt
!        Generated:      8:49:42 AM  Feb 20, 2021
!        Design:         Design1_Al_SR_Simple1_er307_back2back
!        Project:        WR12_SIW_MS_Transition_1
!        Setup:          Setup1
!        Solution:       Sweep
!
! Variables:
!        T_L2 = 35um
!        fil = 0.3mm
!        hm = 0.36mm
!        hsub = 0.127mm
!        hwg = 1.55mm
!        l1 = 1.05mm
!        lcav = 1.92mm
!        len50 = 12.48mm
!        lt = 0.7mm
!        offx = 0um
!        offy = 0um
!        rvia = 0.075mm
!        s1 = 1.33mm
!        shift = 20um
!        sl = 3.1mm
!        sy = 0.65mm
!        th = 35um
!        w1 = 1.17mm
!        w50 = 300um
!        wcav = 3.45mm
!        wm = 1.9mm
!        wslot = 1.5mm
!        wt = 0.6mm
!        wwg = 3.1mm
!
!Data is not renormalized
# GHZ S MA
! Terminal data exported
! Port[1] = WG
! Port[2] = WG1
70                             0.791002648694365 -160.893708059017 0.0239805464603236 9.48212708215373 0.0239805464603236 9.4821270821537  0.790973780164989 -161.026300500457 
! Gamma         0.293110570622029 1044.04707523101 0                0                0                0                0.293245493285495 1044.04767053929 
! Port Impedance538.158379952887 0.0908392442605598 0                0                0                0                538.160094984813 0.0908468185882376 

70.1                           0.781513651778917 -166.463013462285 0.0214831943017503 17.3795466779192 0.0214831943017503 17.379546677919  0.781421577290357 -166.596214014304 
! Gamma         0.292658136711487 1046.99047670504 0                0                0                0                0.292793351498405 1046.99107111728 
! Port Impedance537.412052761747 0.0900974358024236 0                0                0                0                537.413766213353 0.0901053855947622 

70.2                           0.769849471398322 -172.130103264378 0.0207835231062368 28.5147668945101 0.0207835231062368 28.5147668945102 0.769666629694813 -172.271949145559 
! Gamma         0.292209817319753 1049.92981069912 0                0                0                0                0.292345323455839 1049.93040422291 
! Port Impedance536.671989160013 0.0893646462032293 0                0                0                0                536.673701036699 0.0893729706593753 

70.3                           0.755690100021664 -177.886770515126 0.0224416991254814 40.8994573665062 0.0224416991254814 40.8994573665062 0.755357022335205 -178.037429860622 
! Gamma         0.291765562650076 1052.86511127867 0                0                0                0                0.291901359366696 1052.8657039215  
! Port Impedance535.938110771322 0.0886407247538526 0                0                0                0                535.93982107849  0.0886494230840072 

70.4                           0.738804870935573 176.305168475166 0.0272349888628284 51.4166547279761 0.0272349888628284 51.4166547279765 0.738326965716436 176.151714630498 
! Gamma         0.291325323730842 1055.79641208378 0                0                0                0                0.29146141026504 1055.79700385306 
! Port Impedance535.210340544002 0.0879255239534963 0                0                0                0                535.212049287056 0.0879345953787334 

70.5                           0.719540244278351 170.517576884098 0.0361560368453765 57.1747831465979 0.0361560368453765 57.174783146598  0.719013269953032 170.36412841213  
! Gamma         0.290889052398118 1058.72374633642 0                0                0                0                0.291025427992028 1058.72433723946 
! Port Impedance534.488602722741 0.0872188994263553 0                0                0                0                534.490309907089 0.087228343178842 

70.6                           0.699342238661036 164.802929833052 0.0499150476666366 56.6920212047006 0.0499150476666367 56.6920212047007 0.698797243939958 164.643415108155 
! Gamma         0.290456701278634 1061.64714684742 0                0                0                0                0.290593365180376 1061.64773689144 
! Port Impedance533.772822820988 0.0865207098430489 0                0                0                0                533.774528452035 0.0865305251644211 

70.7                           0.680118577011778 159.081043361599 0.0679436775007687 50.4290305613498 0.0679436775007689 50.4290305613499 0.679437309187496 158.917194670232 
! Gamma         0.2900282237732  1064.56664602335 0                0                0                0                0.290165175236077 1064.56723521549 
! Port Impedance533.062927594057 0.0858308168391372 0                0                0                0                533.064631677207 0.0858410029823774 

70.8                           0.662228411264403 153.130394206511 0.0882209546418592 40.3317172673957 0.0882209546418594 40.3317172673958 0.661430649720883 152.980343279431 
! Gamma         0.289603574040524 1067.48227587326 0                0                0                0                0.289740812323231 1067.48286422059 
! Port Impedance532.358845012934 0.0851490849428037 0                0                0                0                532.36054755359  0.0851596411708027 

70.9                           0.643902618030647 146.759454752068 0.10880578246967 28.5390602211217 0.10880578246967 28.5390602211217 0.643240704253273 146.62965437054  
! Gamma         0.289182706981408 1070.39406801526 0                0                0                0                0.289320231348071 1070.39465552473 
! Port Impedance531.660504238742 0.0844753814999258 0                0                0                0                531.662205242302 0.084486307085609 

71                             0.622843772910586 139.912371481644 0.12914488713719 16.3702113053762 0.12914488713719 16.3702113053762 0.622482155884455 139.786163430917 
! Gamma         0.288765578227102 1073.30205368294 0                0                0                0                0.288903387943625 1073.30264036146 
! Port Impedance530.967835597863 0.0838095766031713 0                0                0                0                530.969535069719 0.0838208708293966 

71.1                           0.597418483091542 132.623045865794 0.149736898594117 4.27690878035084 0.149736898594117 4.27690878035085 0.597287233834989 132.480689171809 
! Gamma         0.288352144110599 1076.20626373172 0                0                0                0                0.288490238454752 1076.20684958608 
! Port Impedance530.28077055768  0.0831515430229333 0                0                0                0                530.282468503224 0.0831632051825222 

71.2                           0.566725225149258 124.955303990234 0.171304894142937 -7.74661084600429 0.171304894142937 -7.74661084600425 0.566653759934464 124.789736775705 
! Gamma         0.287942361673196 1079.10672864499 0                0                0                0                0.288080739923565 1079.10731368193 
! Port Impedance529.599241702946 0.0825011561403021 0                0                0                0                529.600938127556 0.0825131855345922 

71.3                           0.530372852277964 116.986413096177 0.194371919799523 -19.8467451010451 0.194371919799524 -19.8467451010451 0.530248129099373 116.802883076029 
! Gamma         0.287536188634484 1082.0034785402  0                0                0                0                0.287674850075207 1082.00406276636 
! Port Impedance528.923182712728 0.0818582938820098 0                0                0                0                528.92487762178  0.0818706898228881 

71.4                           0.488391465163098 108.815639227013 0.219152473581863 -32.1706313781859 0.219152473581863 -32.1706313781859 0.488213606927631 108.622839477184 
! Gamma         0.287133583383712 1084.89654317475 0                0                0                0                0.287272527303989 1084.89712659671 
! Port Impedance528.252528337941 0.0812228366572785 0                0                0                0                528.254221736799 0.0812355984655561 

71.5                           0.441268613578912 100.58045428334  0.245540562543805 -44.8212453123051 0.245540562543805 -44.8212453123051 0.441111422891548 100.380989662337 
! Gamma         0.286734504965891 1087.78595195184 0                0                0                0                0.286873730659858 1087.78653457609 
! Port Impedance527.587214379428 0.0805946672965115 0                0                0                0                527.58890627345  0.080607794302121 

71.6                           0.390018004406227 92.4760439763629 0.273117321786742 -57.8468521488702 0.273117321786742 -57.8468521488702 0.389948005992717 92.2608941772157 
! Gamma         0.286338913068557 1090.67173392611 0                0                0                0                0.28647841983521 1090.67231575907 
! Port Impedance526.927177666597 0.0799736709917631 0                0                0                0                526.92886806113  0.0799871625336293 

71.7                           0.336211835998077 84.7807025990633 0.301184951689724 -71.2410454456779 0.301184951689724 -71.2410454456779 0.336226404301356 84.5300379071743 
! Gamma         0.285946768008892 1093.55391780924 0                0                0                0                0.286086555152018 1093.55449885727 
! Port Impedance526.27235603657  0.0793597352389292 0                0                0                0                526.274044936949 0.0793735906648333 

71.8                           0.28194468120696 77.8926760192635 0.328852720461101 -84.9480265778875 0.328852720461102 -84.9480265778875 0.281970528690561 77.5824994574899 
! Gamma         0.285558030721186 1096.43253197542 0                0                0                0                0.28569809754928 1096.43311224478 
! Port Impedance525.622688313853 0.078752749781601 0                0                0                0                525.624375725404 0.0787669684480465 

71.9                           0.229728099041697 72.3824935262855 0.355182237309231 -98.8736436759987 0.355182237309231 -98.8736436759987 0.229675594452962 71.9923661081335 
! Gamma         0.285172662744713 1099.30760446665 0                0                0                0                0.285313008570761 1099.30818396355 
! Port Impedance524.978114290499 0.0781526065565273 0                0                0                0                524.979800218534 0.078167187828608 

72                             0.18232967191977 69.0470111156621 0.379362106205262 -112.902257991804 0.379362106205262 -112.902257991804 0.182147987791423 68.5604907674379 
! Gamma         0.284790626213087 1102.17916299805 0                0                0                0                0.284931250353044 1102.17974172863 
! Port Impedance524.338574706755 0.0775591996406322 0                0                0                0                524.340259156575 0.0775741428919031 

72.1                           0.142543718188285 68.8758601527353 0.400853464140429 -126.916578450157 0.400853464140429 -126.916578450157 0.142211056068669 68.2693928772223 
! Gamma         0.284411883849349 1105.04723496294 0                0                0                0                0.284552785613861 1105.04781293327 
! Port Impedance523.704011232176 0.0769724251995373 0                0                0                0                523.705694209067 0.0769877298118875 

72.2                           0.112753843286412 72.6453181329154 0.419453907885682 -140.815428853477 0.419453907885682 -140.815428853477 0.112200583108034 71.8882933948242 
! Gamma         0.284036398895359 1107.91184743791 0                0                0                0                0.2841775776407  1107.91242465398 
! Port Impedance523.074366447194 0.0763921814375391 0                0                0                0                523.076047956429 0.0764078468010673 

72.3                           0.0939636219155096 79.8380450560505 0.435266974645046 -154.525000885749 0.435266974645046 -154.525000885749 0.0930432095717401 78.9596753008497 
! Gamma         0.283664135235356 1110.77302718776 0                0                0                0                0.283805590279691 1110.77360365549 
! Port Impedance522.449583825133 0.0758183685489951 0                0                0                0                522.45126387197  0.0758343940618875 

72.4                           0.0845634115963339 87.9876839650075 0.448607252646285 -168.00205319495 0.448607252646285 -168.00205319495 0.0831842238357074 87.1510932483166 
! Gamma         0.283295057246582 1113.63080067028 0                0                0                0                0.283436787924727 1113.63137639555 
! Port Impedance521.82960771465  0.0752508886710725 0                0                0                0                521.831286304332 0.0752672737394828 

72.5                           0.0807307357374407 94.4947604570088 0.459888444308898 178.769424544161 0.459888444308898 178.76942454416  0.0789839269952241 93.8883802546054 
! Gamma         0.282929129854807 1116.48519404108 0                0                0                0                0.283071135505605 1116.48576902972 
! Port Impedance521.214383322595 0.0746896458378155 0                0                0                0                521.216060460349 0.0747063898757473 

72.6                           0.07877753907302 98.6298802551426 0.469530987076523 165.785070564403 0.469530987076523 165.785070564403 0.0768672303196475 98.3220480088415 
! Gamma         0.282566318513476 1119.33623315817 0                0                0                0                0.282708598484062 1119.3368074158  
! Port Impedance520.603856697279 0.0741345459354893 0                0                0                0                520.605532388316 0.0741516483646808 

72.7                           0.07662025490572 101.049320085044 0.477904199882107 153.027727839097 0.477904199882107 153.027727839097 0.0747257748436933 100.994767110231 
! Gamma         0.282206589192935 1122.18394358656 0                0                0                0                0.282349142831711 1122.18451711895 
! Port Impedance519.997974712134 0.0735854966591607 0                0                0                0                519.99964896165  0.0736029569089708 

72.8                           0.0735981229604137 102.688653490193 0.485300951539514 140.473980452043 0.485300951539514 140.473980452043 0.0717991531137467 102.796477206428 
! Gamma         0.281849908370473 1125.02835060272 0                0                0                0                0.281992735030514 1125.02892341546 
! Port Impedance519.396685049762 0.0730424074704785 0                0                0                0                519.398357862934 0.0730602249777711 

72.9                           0.0698388971637114 104.307749381651 0.491935348717405 128.098944125034 0.491935348717405 128.098944125034 0.0681085210791718 104.500943779568 
! Gamma         0.281496243020665 1127.86947919897 0                0                0                0                0.281639342059543 1127.8700512976  
! Port Impedance518.799936186347 0.0725051895579015 0                0                0                0                518.801607568338 0.0725233637656392 

73                             0.0658000832744654 106.421107179019 0.497953383749967 115.879295910762 0.497953383749967 115.879295910762 0.0640436401312924 106.686187710265 
! Gamma         0.281145560605948 1130.70735408776 0                0                0                0                0.281288931385453 1130.70792547777 
! Port Impedance518.207677376453 0.071973755790326 0                0                0                0                518.2093473324   0.0719922861525952 

73.1                           0.0620182224473808 109.302910739636 0.50344889299266 103.794851347805 0.50344889299266 103.794851347805 0.0601417833780494 109.728210322351 
! Gamma         0.280797829067422 1133.54199970592 0                0                0                0                0.280941470953496 1133.54257039275 
! Port Impedance517.619858638132 0.0714480206908722 0                0                0                0                517.621527173164 0.0714669066652692 

73.2                           0.058972249249873 112.974166061832 0.508479978157615 91.8290835850532 0.508479978157615 91.8290835850533 0.0569639638311859 113.750318158376 
! Gamma         0.280453016815853 1136.37344021879 0                0                0                0                0.280596929178549 1136.37401020781 
! Port Impedance517.036430738434 0.0709279003867829 0                0                0                0                517.038097857654 0.0709471414390995 

73.3                           0.0569923893056262 117.193237831554 0.513083235076102 79.9689513519388 0.513083235076102 79.9689513519388 0.0549853156278186 118.534201916071 
! Gamma         0.280111092722896 1139.20169952427 0                0                0                0                0.280255274936339 1139.20226882078 
! Port Impedance516.457345179197 0.0704133125785027 0                0                0                0                516.459010887694 0.0704329081815528 

73.4                           0.0561946695631817 121.514437449266 0.517284600302896 68.2043362076626 0.517284600302896 68.2043362076626 0.0544631904287464 123.502036045409 
! Gamma         0.279772026112505 1142.0268012568  0                0                0                0                0.279916477554851 1142.02736986607 
! Port Impedance515.882554183201 0.0699041765028449 0                0                0                0                515.884218486041 0.0699241261363321 

73.5                           0.0564577035459691 125.442156673276 0.521106547331659 56.5273182938699 0.521106547331659 56.5273182938699 0.055316555207866 127.898581108049 
! Gamma         0.279435786752543 1144.8487687913  0                0                0                0                0.279580506805948 1144.84933671852 
! Port Impedance515.312010680612 0.0694004128981265 0                0                0                0                515.313673582844 0.0694207160485429 

73.6                           0.0574567707639656 128.613483279759 0.524571932445497 44.931454929677  0.524571932445497 44.931454929677  0.0570901758684621 131.126576173649 
! Gamma         0.279102344846585 1147.66762524696 0                0                0                0                0.279247332897167 1147.66819249728 
! Port Impedance514.745668295751 0.0689019439702587 0                0                0                0                514.747329802403 0.0689226001307883 

73.7                           0.0587401866364498 130.913393455111 0.527705126084453 33.4111697651462 0.527705126084453 33.4111697651463 0.0590383103813963 133.020831187507 
! Gamma         0.278771671025897 1150.48339349103 0                0                0                0                0.278916926463707 1150.48396006954 
! Port Impedance514.183481334157 0.0684086933597392 0                0                0                0                514.185141450237 0.0684297020301635 

73.8                           0.0598263941645785 132.50651729585  0.530531230058984 21.9613118114617 0.530531230058984 21.9613118114618 0.060336234787038 133.957450082679 
! Gamma         0.278443736341603 1153.29609614253 0                0                0                0                0.27858925856059 1153.29666205427 
! Port Impedance513.625404769939 0.0679205861095185 0                0                0                0                513.627063500435 0.0679419467961238 

73.9                           0.0603381421485609 133.835617070446 0.533074207929386 10.5769038557811 0.533074207929386 10.5769038557811 0.0604769347673873 134.833540088995 
! Gamma         0.278118512257036 1156.10575557582 0                0                0                0                0.278264300655005 1156.10632082578 
! Port Impedance513.071394233416 0.0674375486337118 0                0                0                0                513.073051583295 0.0674592608491986 

74                             0.0602263828615689 135.590830243837 0.535354675879757 -0.746930720568068 0.535354675879756 -0.746930720568081 0.0598105275455662 136.803823491953 
! Gamma         0.277795970640261 1158.91239392423 0                0                0                0                0.27794202461881 1158.91295851733 
! Port Impedance512.521405999033 0.0669595086871324 0                0                0                0                512.523061973242 0.0669815719505259 

74.1                           0.0600681482089509 138.502529281327 0.537387949220043 -12.0148944489095 0.537387949220043 -12.0148944489095 0.0597272897143471 140.511390758166 
! Gamma         0.2774760837568  1161.7160330835  0                0                0                0                0.277622402721216 1161.71659702463 
! Port Impedance511.975396973546 0.0664863953356203 0                0                0                0                511.97705157701  0.0665088091721831 

74.2                           0.0611382284669135 142.739305266723 0.539182751295661 -23.2313386456165 0.53918275129566 -23.2313386456165 0.0618463758529659 145.221457960661 
! Gamma         0.277158824262545 1164.51669471522 0                0                0                0                0.277305407621616 1164.5172580092  
! Port Impedance511.433324684467 0.0660181389271436 0                0                0                0                511.434977922091 0.0660409028682894 

74.3                           0.0647553255246596 147.295696453656 0.540740798449534 -34.4000285194306 0.540740798449534 -34.4000285194306 0.0667867256428087 149.257002410201 
! Gamma         0.276844165196809 1167.31440025021 0                0                0                0                0.276991012362582 1167.31496290183 
! Port Impedance510.895147268771 0.0655546710636481 0                0                0                0                510.896799145437 0.0655777846468572 

74.4                           0.071236852949347 150.573863631599 0.54205730057449 -45.5238918991288 0.542057300574489 -45.5238918991288 0.0739948442324347 151.482450456881 
! Gamma         0.276532079975365 1170.10917089181 0                0                0                0                0.276679190363011 1170.1097329058  
! Port Impedance510.360823461841 0.0650959245736349 0                0                0                0                510.36247398241  0.0651193873423708 

74.5                           0.0797749588624493 151.731118690617 0.54312228058474 -56.6047820809636 0.54312228058474 -56.6047820809636 0.0825241980895453 151.77705549992  
! Gamma         0.276222542383368 1172.90102761913 0                0                0                0                0.276369915411421 1172.90158900017 
! Port Impedance509.830312586666 0.0646418334854412 0                0                0                0                509.831961755979 0.0646656449890695 

74.6                           0.0892484165393188 150.915049252744 0.543922540333424 -67.6432683836554 0.543922540333423 -67.6432683836554 0.0916048522648818 150.504705750971 
! Gamma         0.275915526568483 1175.68999119025 0                0                0                0                0.27606316165939 1175.69055194299 
! Port Impedance509.303574543272 0.0641923330012075 0                0                0                0                509.305222366145 0.0642164927949152 

74.7                           0.0988194468988099 148.639595121509 0.544444126816925 -78.6384451637065 0.544444126816924 -78.6384451637065 0.100738180536996 148.065530922089 
! Gamma         0.275611007034672 1178.47608214534 0                0                0                0                0.275758903615145 1178.47664227435 
! Port Impedance508.780569798378 0.0637473594715076 0                0                0                0                508.782216279607 0.0637718671162245 

74.8                           0.10800726539778 145.358709896517 0.544675368500819 -89.5877228478343 0.544675368500819 -89.5877228478343 0.109605870521583 144.756208327684 
! Gamma         0.275308958636389 1181.25932080971 0                0                0                0                0.275457116137278 1181.25988031955 
! Port Impedance508.261259375284 0.0633068503706243 0                0                0                0                508.262904519642 0.0633317054329452 

74.9                           0.116552748807933 141.36955098969  0.544611132707307 -100.486542394869 0.544611132707307 -100.486542394869 0.117972802861868 140.770889894956 
! Gamma         0.275009356572657 1184.03972729688 0                0                0                0                0.275157774428609 1184.04028619204 
! Port Impedance507.745604843971 0.0628707442724498 0                0                0                0                507.74724865621  0.0628959463245587 

75                             0.124285846320132 136.843525446256 0.544260193302747 -111.327975078584 0.544260193302747 -111.327975078584 0.125623290375664 136.233199350187 
! Gamma         0.27471217638103 1186.8173215115  0                0                0                0                0.274860854030167 1186.81787979643 
! Port Impedance507.233568311419 0.0624389808269952 0                0                0                0                507.235210796266 0.0624645294465901 

75.1                           0.131042552369762 131.874854245922 0.543659696485769 -122.102351947095 0.543659696485769 -122.102351947095 0.132326257938637 131.225783224941 
! Gamma         0.274417393931689 1189.59212315228 0                0                0                0                0.274566330815197 1189.59268083139 
! Port Impedance506.725112412128 0.0620115007374885 0                0                0                0                506.72675357429  0.0620373955077086 

75.2                           0.136622675833899 126.518639338972 0.542902413620454 -132.797700181311 0.542902413620454 -132.797700181311 0.137821380574612 125.812427317327 
! Gamma         0.274124985421675 1192.36415171486 0                0                0                0                0.27427418098118 1192.36470879252 
! Port Impedance506.220200298846 0.0615882457380407 0                0                0                0                506.221840143007 0.0616144862474  

75.3                           0.140776158156491 120.817834004922 0.542176386145386 -143.403173061672 0.542176386145386 -143.403173061672 0.141822398483586 120.054384177282 
! Gamma         0.273834927369088 1195.13342649462 0                0                0                0                0.273984381052376 1195.13398297514 
! Port Impedance505.718795633481 0.0611691585703227 0                0                0                0                505.720434164312 0.061195744414193 

75.4                           0.143212941705906 114.823212934575 0.541784085222592 -153.91869543476 0.541784085222592 -153.91869543476 0.144036734934698 114.022880511032 
! Gamma         0.273547196607207 1197.8999665894  0                0                0                0                0.273696907866515 1197.90052247707 
! Port Impedance505.220862578264 0.0607541829701964 0                0                0                0                505.222499800388 0.060781113744315 

75.5                           0.143636182441943 108.609246930741 0.542051846586115 -164.368606089015 0.542051846586115 -164.368606089015 0.144200340723983 107.808906170079 
! Gamma         0.273261770278889 1200.66379090229 0                0                0                0                0.273411738566628 1200.66434620134 
! Port Impedance504.726365786961 0.0603432636312404 0                0                0                0                504.728001704986 0.0603705389416028 

75.6                           0.141797575927534 102.286843063531 0.543093046146603 -174.801301968225 0.543093046146603 -174.801301968225 0.142123474276679 101.530743580396 
! Gamma         0.272978625831443 1203.42491814424 0                0                0                0                0.273128850604386 1203.42547285886 
! Port Impedance504.235270396446 0.0599363462003077 0                0                0                0                504.236905014978 0.0599639656561621 

75.7                           0.137566567709746 96.0126570754721 0.544665056441305 174.739939156853 0.544665056441305 174.739939156853 0.13773850573957 95.339711402063  
! Gamma         0.272697741011716 1206.18336683669 0                0                0                0                0.272848221736186 1206.18392097104 
! Port Impedance503.747542018324 0.0595333772499883 0                0                0                0                503.749175341931 0.05956134046559 

75.8                           0.13099586704198 89.9947742197029 0.546371139438698 164.245062232516 0.546371139438698 164.245062232516 0.131138080124896 89.4253523382765 
! Gamma         0.272419093861143 1208.93915531416 0                0                0                0                0.272569829995012 1208.93970887231 
! Port Impedance503.263146730777 0.0591343042609373 0                0                0                0                503.264778764005 0.0591626108555475 

75.9                           0.122361866511921 84.4960843316852 0.547951817439194 153.730145794482 0.547951817439194 153.730145794482 0.122594577971286 84.0224367853425 