! Touchstone file exported from HFSS 2020.2.0
!        File:           /home/erdoel/scratch/P2S30/WR12_SIW_MS_Transition_2.aedt
!        Generated:      7:35:16 AM  May 20, 2021
!        Design:         Testpcb_singlepart_noplating
!        Project:        WR12_SIW_MS_Transition_2
!        Setup:          Setup1
!        Solution:       Sweep
!
! Variables:
!        T_L2 = 35um
!        fil = 0.3mm
!        hm = 0.36mm
!        hsub = 0.127mm
!        hwg = 1.55mm
!        l1 = 1.05mm
!        lcav = 1.92mm
!        len50 = 12.48mm
!        lt = 0.7mm
!        offx = 0um
!        offy = 0um
!        radalign = 0.8mm
!        radscrew = 1.1mm
!        rvia = 0.075mm
!        s1 = 1.33mm
!        shift = 20um
!        sl = 3.1mm
!        sy = 0.65mm
!        th = 35um
!        w1 = 1.17mm
!        w50 = 300um
!        wcav = 3.45mm
!        wm = 1.9mm
!        wslot = 1.5mm
!        wt = 0.6mm
!        wwg = 3.1mm
!        x1 = 0.325mm
!        x2 = 15mm
!        x3 = 25mm
!        ysep = 40mm
!
!Data is not renormalized
# GHZ S MA
! Terminal data exported
! Port[1] = L1_WG1
! Port[2] = L1_WG2
! Port[3] = L2_WG1
! Port[4] = L2_WG2
! Port[5] = L3_WG1
! Port[6] = L3_WG2
! Port[7] = L4_WG1
! Port[8] = L4_WG2
70                             0.0422655102424462 21.4346582177023 0.38841095951386 -75.7646550117863 0.000555457488257397 -31.8790816359523 0.000780079347692251 87.0735667544716 
                               0.000175956275645861 -141.481770362256 0.000140897643495586 -41.5456441918118 6.16137548973901E-05 79.7168031695949 0.000332203750872355 -164.693389603069 
                               0.38841095951386 -75.7646550117863 0.0428210822823166 20.2639222122746 0.000791176029719028 87.2220924922961 0.000544857528730688 -29.6715652796701 
                               0.000132213663085023 -32.7555186361898 0.000170709840924082 -141.910203160661 0.000334792881682791 -166.622655711281 5.79869724651487E-05 66.6533206210422 
                               0.000555457488257397 -31.8790816359523 0.000791176029719028 87.2220924922961 0.0906346678046376 -107.877050888181 0.389136394640499 -160.002389921479 
                               0.000141719845280798 36.5081503365726 0.000910735525812057 -25.3923523470275 0.000107071569723627 65.0730305692261 0.000433632888986777 -169.177079639659 
                               0.000780079347692251 87.0735667544716 0.000544857528730688 -29.6715652796701 0.389136394640499 -160.002389921479 0.0907389684180309 -107.689601958539 
                               0.000939074257908146 -24.2489234262335 0.000179017124025934 32.1673989786732 0.000433108984872453 -169.264820648899 8.84565089703787E-05 61.1925668752992 
                               0.000175956275645861 -141.481770362256 0.000132213663085023 -32.7555186361898 0.000141719845280798 36.5081503365726 0.000939074257908146 -24.2489234262335 
                               0.0453184974528359 -38.854238783561 0.297998695564762 -97.6240771964553 0.000364770456621547 120.032307097087 0.000544767348837937 -74.2000754162863 
                               0.000140897643495586 -41.5456441918118 0.000170709840924082 -141.910203160661 0.000910735525812057 -25.3923523470275 0.000179017124025934 32.1673989786732 
                               0.297998695564762 -97.6240771964553 0.044808263842107 -38.1942051300754 0.000540091096148169 -73.9414576550575 0.000308144002675781 114.625414174405 
                               6.16137548973901E-05 79.7168031695949 0.000334792881682791 -166.622655711281 0.000107071569723627 65.0730305692262 0.000433108984872453 -169.264820648899 
                               0.000364770456621547 120.032307097087 0.000540091096148169 -73.9414576550575 0.00646992807455218 -102.140516438237 0.254844983372268 127.145239855084 
                               0.000332203750872355 -164.693389603069 5.79869724651487E-05 66.6533206210422 0.000433632888986777 -169.177079639659 8.84565089703787E-05 61.1925668752993 
                               0.000544767348837937 -74.2000754162863 0.000308144002675781 114.625414174405 0.254844983372268 127.145239855084 0.00814929039104739 -92.2460653652606 
! Gamma         0.292972555223972 1044.04504644059 0.292967075740858 1044.04484380695 0.292974999424331 1044.04514646372 0.292969090458714 1044.04502552011 0.292966738356059 1044.04490587783 0.292964934381133 1044.04488866622 0.292979663165661 1044.04511521691 0.292966539074434 1044.04491967545 
! Port Impedance         538.163490942103 0.0908196250435706 538.163934576752 0.0908192711500042 538.163177838456 0.0908197840619239 538.163541304964 0.0908198391207761 538.163614715101 0.0908191530385179 538.163889584754 0.0908199545191162 538.163472410218 0.0908197721387142 538.163739603764 0.0908196418403847 
70.25                          0.104908822550765 -55.2883819680797 0.415220857946851 -110.494363516866 0.00107985853694746 -95.7647232958293 0.000693695578461088 -17.7404706707517 
                               0.000106567276463772 41.6566267008906 0.000105781250007479 -143.058837205849 3.09740733938449E-05 62.9486044269874 0.000309372601514065 75.9269877916635 
                               0.415220857946851 -110.494363516866 0.105740078153562 -55.3296170075406 0.000715901364616647 -15.1838512374379 0.00109103145949993 -94.6166248141068 
                               0.000110380201192008 -145.226464026167 0.000100193842156902 33.9438572597555 0.000299525509270902 75.8605411059342 2.95192634598275E-05 56.2373372730919 
                               0.00107985853694746 -95.7647232958293 0.000715901364616647 -15.1838512374379 0.127697817577328 -116.231515804837 0.419699681688438 164.469714850833 
                               0.000303332764149681 -64.126924309254 0.000857095290915111 -105.419911323585 0.000402386141258398 -140.274544832823 0.000267302915476882 41.8539815829464 
                               0.000693695578461088 -17.7404706707517 0.00109103145949993 -94.6166248141068 0.419699681688439 164.469714850833 0.127531291736447 -116.078137908539 
                               0.000833665767805056 -106.112292867114 0.000330814893965564 -71.2191143115487 0.000249006430243914 39.7553352367767 0.000385447280262008 -145.94305244774 
                               0.000106567276463772 41.6566267008906 0.000110380201192008 -145.226464026167 0.000303332764149682 -64.1269243092538 0.000833665767805056 -106.112292867114 
                               0.128034398274937 -82.8985955896024 0.319752835942245 -146.555889351548 0.000880569261595118 36.8673026330484 0.000435257765453433 -166.106372703829 
                               0.000105781250007479 -143.058837205849 0.000100193842156902 33.9438572597555 0.000857095290915112 -105.419911323585 0.000330814893965564 -71.2191143115487 
                               0.319752835942245 -146.555889351548 0.127631026466535 -82.7499472102319 0.000403608805068331 -165.802547254942 0.0008346185543874 34.9844207711086 
                               3.09740733938449E-05 62.9486044269874 0.000299525509270902 75.8605411059342 0.000402386141258398 -140.274544832823 0.000249006430243914 39.7553352367767 
                               0.000880569261595118 36.8673026330484 0.000403608805068331 -165.802547254942 0.0967777585097618 -75.3049360257838 0.271248211061002 67.7869747261209 
                               0.000309372601514065 75.9269877916635 2.95192634598275E-05 56.2373372730919 0.000267302915476882 41.8539815829464 0.000385447280262008 -145.94305244774 
                               0.000435257765453433 -166.106372703829 0.0008346185543874 34.9844207711086 0.271248211061002 67.7869747261209 0.0985822818454182 -75.4048743774824 
! Gamma         0.291848448241294 1051.39594659063 0.291842938085632 1051.39574529857 0.291850903625269 1051.39604594161 0.29184496263747 1051.39592576326 0.291842597440875 1051.39580692942 0.291840783913869 1051.39578981411 0.291855592868807 1051.3960149816  0.291842397243961 1051.39582062727 
! Port Impedance         536.309362821522 0.0889809371733563 536.309803567526 0.088980540259838 536.309051478557 0.0889811145936469 536.309412923178 0.0889811240495806 536.309485261988 0.0889804168390582 536.309759083961 0.0889812076119557 536.309344733328 0.088981133033735 536.309609819342 0.0889809061787486 
70.5                           0.177931802426422 -81.405651786843 0.433331144779477 -143.632117588881 0.00173246063912123 -178.937861699945 0.000387695859122023 -78.0031020891596 
                               0.000181890727215094 -29.4197233106613 0.000384115314353284 60.5826253491539 0.000188228999984857 -146.824010938877 0.000392860003199636 -79.362593429528 
                               0.433331144779477 -143.632117588881 0.178516914139192 -81.3970489563824 0.000437068925975928 -73.7851428336765 0.00173442358402411 -178.084087225863 
                               0.000386218473907713 60.297038639594  0.00017279568372175 -29.9284898272383 0.000407815995451872 -79.0770965237177 0.000181781362147526 -145.671900422024 
                               0.00173246063912123 -178.937861699945 0.000437068925975928 -73.7851428336765 0.141473529631993 -125.101622810052 0.440206159139126 130.531722357696 
                               0.000161274597569944 -109.994502367483 0.000968522689400584 -154.786764048877 0.000271191538718785 -45.5020915687901 0.000185769254563481 31.2935035035783 
                               0.000387695859122023 -78.0031020891596 0.00173442358402411 -178.084087225863 0.440206159139126 130.531722357696 0.141368808397333 -124.910852377232 
                               0.000961216770249573 -152.440923667153 0.000152012158113035 -117.570835801167 0.000182275542543924 24.1578262570507 0.000289398198721787 -44.8738530932062 
                               0.000181890727215094 -29.4197233106613 0.000386218473907713 60.297038639594  0.000161274597569944 -109.994502367483 0.000961216770249573 -152.440923667153 
                               0.175283968702988 -106.772190391501 0.336656780950348 165.857059962192 0.00066100829041448 -120.938816986983 0.000922872297604707 137.847181911337 
                               0.000384115314353284 60.5826253491539 0.00017279568372175 -29.9284898272383 0.000968522689400584 -154.786764048877 0.000152012158113035 -117.570835801167 
                               0.336656780950348 165.857059962192 0.175018735980859 -106.71489707059 0.000912956148569892 138.013686827678 0.000668759898319077 -123.935203658617 
                               0.000188228999984857 -146.824010938877 0.000407815995451872 -79.0770965237176 0.000271191538718785 -45.5020915687901 0.000182275542543924 24.1578262570507 
                               0.00066100829041448 -120.938816986983 0.000912956148569892 138.013686827678 0.167927712337024 -98.2088315776691 0.283303487894702 10.5934612207234 
                               0.000392860003199636 -79.362593429528 0.000181781362147526 -145.671900422024 0.000185769254563481 31.2935035035784 0.000289398198721787 -44.8738530932062 
                               0.000922872297604707 137.847181911337 0.000668759898319077 -123.935203658617 0.283303487894702 10.5934612207234 0.169313378216543 -98.1639447013679 
! Gamma         0.290749599290854 1058.7217419812  0.290744058697096 1058.72154200729 0.29075206577606 1058.72184067173 0.290746092997284 1058.72172124511 0.290743714821066 1058.72160320568 0.290741891809168 1058.72158618491 0.290756780357919 1058.72180999388 0.290743513710881 1058.72161680546 
! Port Impedance         534.493654825824 0.0871972262020568 534.494092757802 0.0871967866090459 534.493345199775 0.087197421885435 534.493704673318 0.0871973860798211 534.493775971732 0.0871966578910698 534.494048768934 0.0871974380896183 534.493637166941 0.0871974705442049 534.493900203599 0.0871971477922685 
70.75                          0.235850723673764 -102.047375307495 0.444891872014898 -175.357239436649 0.00126246336397405 122.560851408299 0.000566992708161637 83.2359894624686 
                               0.000320779974936969 -142.31694226439 0.000487177252087034 -47.7766810943394 0.000168745832559578 -142.272913579548 0.000127532131377171 168.679435918804 
                               0.444891872014898 -175.357239436649 0.23622878050657 -102.012422503848 0.000517371408219315 85.8712428013009 0.00127804576887797 123.656841122744 
                               0.000488361368936787 -47.1538412006008 0.000322730549340573 -143.642372963801 0.000132488549972947 164.550058376714 0.00017091546217224 -142.320269196486 
                               0.00126246336397405 122.560851408299 0.000517371408219315 85.8712428013009 0.137219776426142 -128.297184618866 0.456470149699425 98.0450193276632 
                               0.00018436519594876 105.899849204974 0.00068442056014916 85.0967548624017 0.00018763914910767 23.2488387751617 0.000154005968858585 -171.018312218618 
                               0.000566992708161637 83.2359894624686 0.00127804576887797 123.656841122744 0.456470149699425 98.0450193276632 0.13730023163323 -128.135084291775 
                               0.000670536536414036 87.7446342390526 0.000231692594929515 103.000821028953 0.000133725888256003 179.743283151794 0.000160927939955246 20.9341897648183 
                               0.000320779974936969 -142.31694226439 0.000488361368936787 -47.1538412006008 0.00018436519594876 105.899849204974 0.000670536536414036 87.7446342390526 
                               0.179256117341251 -122.913826213675 0.350151107528446 119.336063335405 0.000301307615916183 -132.054486015649 0.000395837502632046 -4.95612038168491 
                               0.000487177252087034 -47.7766810943395 0.000322730549340573 -143.642372963801 0.00068442056014916 85.0967548624017 0.000231692594929515 103.000821028953 
                               0.350151107528446 119.336063335405 0.179079185485288 -122.871432813038 0.000379190556372169 -7.43937960386753 0.000276713664516326 -134.205018633285 
                               0.000168745832559578 -142.272913579548 0.000132488549972947 164.550058376714 0.00018763914910767 23.2488387751617 0.000133725888256003 179.743283151794 
                               0.000301307615916183 -132.054486015649 0.000379190556372169 -7.43937960386753 0.188492621532352 -117.606775190351 0.293195632213145 -45.4264337522154 
                               0.000127532131377171 168.679435918804 0.000170915462172239 -142.320269196486 0.000154005968858585 -171.018312218618 0.000160927939955246 20.9341897648183 
                               0.000395837502632046 -4.95612038168492 0.000276713664516326 -134.205018633285 0.293195632213145 -45.4264337522154 0.189618559820725 -117.477584664694 
! Gamma         0.289675258658726 1066.0229501672  0.289669687856426 1066.02275148866 0.289677736164407 1066.02304820862 0.289671731821353 1066.02292952061 0.289669340777284 1066.02281226194 0.289667508346435 1066.022795334   0.289682475923523 1066.02301780841 0.289669138755894 1066.02282576531 
! Port Impedance         532.715187964953 0.0854662472483978 532.715623154771 0.0854657653030866 532.714880013643 0.0854664610612056 532.715237565069 0.0854663803230559 532.715307852786 0.085465631300057 532.715579647399 0.0854664010531362 532.715170721597 0.0854665397984111 532.71543176485  0.0854661217858218 
71                             0.272518631530699 -121.104884159972 0.45350645805875 154.113236118398 0.00112505069394828 45.3937654407986 0.000877111529879617 -30.4049054739194 
                               0.000156280229015914 143.550471207383 0.000143192226898326 -152.060806854109 0.000230680936130683 23.2300566233086 0.000108582261769629 78.6533095379788 
                               0.45350645805875 154.113236118398 0.272765760506438 -121.046349950248 0.000822974900799577 -31.9130521861498 0.00114101771755488 45.2980973611702 
                               0.000157601741420902 -151.894480759352 0.000149661859072031 135.56859152869  9.27870740159317E-05 75.8666719876321 0.000246188551371231 22.1013769816446 
                               0.00112505069394828 45.3937654407986 0.000822974900799577 -31.9130521861498 0.138699899110039 -122.955998988462 0.468023236133416 66.2142117675781 
                               0.000235182116192945 -104.135867975746 0.000596768838867305 6.71401965773951 0.000480474339580483 151.224623243642 0.000321912128847409 -17.4911223918474 
                               0.000877111529879617 -30.4049054739194 0.00114101771755488 45.2980973611702 0.468023236133416 66.2142117675781 0.138772668086226 -122.873088140886 
                               0.000593786950600163 8.57258842563688 0.000227860858217618 -98.5235005915821 0.000337695635765366 -24.0361269559918 0.000492713810479997 152.476786532117 
                               0.000156280229015914 143.550471207383 0.000157601741420902 -151.894480759352 0.000235182116192944 -104.135867975746 0.000593786950600163 8.57258842563688 
                               0.168393012859788 -125.120683772659 0.361303725132244 73.2849544809866 0.000870741565528466 83.9613382720101 0.000338395392325799 121.753439599443 
                               0.000143192226898326 -152.060806854109 0.000149661859072031 135.56859152869  0.000596768838867305 6.71401965773951 0.000227860858217618 -98.5235005915821 
                               0.361303725132244 73.2849544809866 0.16830684057743 -125.077449912595 0.00037092874719655 127.124297819454 0.000857032414072373 82.4216344756584 
                               0.000230680936130683 23.2300566233086 9.27870740159317E-05 75.8666719876321 0.000480474339580483 151.224623243642 0.000337695635765366 -24.0361269559918 
                               0.000870741565528466 83.9613382720101 0.00037092874719655 127.124297819454 0.182097921538961 -125.197680545742 0.300010708693892 -101.296643478279 
                               0.000108582261769629 78.6533095379789 0.000246188551371231 22.1013769816446 0.000321912128847409 -17.4911223918474 0.000492713810479997 152.476786532117 
                               0.000338395392325799 121.753439599443 0.000857032414072373 82.4216344756584 0.300010708693892 -101.296643478279 0.183191041956677 -125.079237908756 
! Gamma         0.288624706886196 1073.30007290708 0.288619106100162 1073.2998755018  0.288627195333171 1073.30017031044 0.288621159648149 1073.30005234827 0.288618755845565 1073.2999358571  0.28861691406048 1073.29991902033 0.288631960111229 1073.30014018348 0.28861855291506 1073.29994926567 
! Port Impedance         530.972831784298 0.083785871418325 530.973264301184 0.0837853474352716 530.972525467054 0.0837861032318487 530.97288114358  0.0837859778783667 530.97295044913  0.0837852081593576 530.973221262622 0.0837859675915622 530.972814943246 0.0837862119114691 530.973074046932 0.0837856992521324 
71.25                          0.282553493030943 -139.221722624303 0.461728176950394 124.660144663685 0.000726937050201578 -31.1195098077737 0.000901945512048002 -132.441584994298 
                               0.000422981610678649 71.7604459122963 0.000214921565770022 150.928219274344 7.14335409890073E-05 22.2418377959734 0.000228846463577546 15.852576337894  
                               0.461728176950394 124.660144663685 0.282723663635676 -139.137414947   0.00086506476154322 -138.017791622254 0.000707521774781586 -31.708195294871 
                               0.00020848532272383 147.26163542555  0.000408414064486378 70.9053458150553 0.000238489512082875 17.5011745450713 8.01061274358578E-05 13.4935470401378 
                               0.000726937050201578 -31.1195098077737 0.00086506476154322 -138.017791622254 0.171542846944216 -118.410278915745 0.475016407100136 35.1583398430807 
                               0.000129978572485326 46.9180123804408 0.000608686791543476 -117.397083715211 0.000160918089514338 151.69526257847  0.000408233821388436 -104.859069493494 
                               0.000901945512048002 -132.441584994298 0.000707521774781586 -31.708195294871 0.475016407100136 35.1583398430807 0.171610397148017 -118.348716938409 
                               0.000586898269991265 -117.951067659301 0.000129656137355515 48.073697411487  0.000406304965148684 -106.122146744661 0.000146440628630693 135.300741641196 
                               0.000422981610678649 71.7604459122963 0.00020848532272383 147.26163542555  0.000129978572485326 46.9180123804408 0.000586898269991265 -117.951067659301 
                               0.198427045005708 -122.451786191947 0.363880029232498 27.6683383114734 0.000357430861515493 152.93446002061  0.0006067232134472 -116.886362231364 
                               0.000214921565770022 150.928219274344 0.000408414064486378 70.9053458150553 0.000608686791543476 -117.397083715211 0.000129656137355515 48.073697411487  
                               0.363880029232498 27.6683383114734 0.198291696969139 -122.441694330053 0.000602890823505553 -115.266188289003 0.000364649264083837 160.462336991471 
                               7.14335409890074E-05 22.2418377959734 0.000238489512082875 17.5011745450713 0.000160918089514338 151.69526257847  0.000406304965148684 -106.122146744661 
                               0.000357430861515493 152.93446002061  0.000602890823505553 -115.266188289003 0.209349885271421 -124.357502266347 0.302405863142851 -155.617853829426 
                               0.000228846463577546 15.852576337894  8.01061274358578E-05 13.4935470401378 0.000408233821388436 -104.859069493494 0.000146440628630693 135.300741641196 
                               0.0006067232134472 -116.886362231364 0.000364649264083837 160.462336991471 0.302405863142852 -155.617853829426 0.210395624635227 -124.354517763676 
! Gamma         0.287597253221069 1080.55359680963 0.287591622671535 1080.55340065613 0.287599752531673 1080.55369358565 0.28759368572276 1080.55357633693 0.287591269268639 1080.55346060038 0.287589418192869 1080.55344385316 0.287604542173048 1080.55366372766 0.28759106543114 1080.55347391571 
! Port Impedance         529.265501853096 0.0821540785763411 529.265931763763 0.082153512858088 529.265197130665 0.08215432826657 529.265550977843 0.0821541586036878 529.265619328644 0.0821533683214474 529.265889181807 0.0821541175532885 529.265485401642 0.0821544667566853 529.265742617592 0.0821538600430906 
71.5                           0.265318289148797 -155.031913821104 0.473855786220063 95.814666211474  0.000999402830221974 -130.398316431603 0.00108556769287664 127.427373750814 
                               0.000485134773529176 -74.8537785537618 0.000323198061666482 14.6565887134295 0.000512483086484167 -165.436425876863 0.000290968228163101 -93.3319639555564 
                               0.473855786220063 95.814666211474  0.265475165377774 -154.917590914967 0.00103115380066868 125.413082037652 0.00098592398074111 -131.647884721463 
                               0.000336867481667898 12.5856787209214 0.000473784153868581 -76.4207267678207 0.000287259692149109 -95.5362451723697 0.000519487542244095 -166.80723053074 
                               0.000999402830221973 -130.398316431603 0.00103115380066868 125.413082037652 0.222821628568617 -123.571317830398 0.476833151384869 4.96449553877501 
                               0.000543444441752051 -39.2216495019787 0.00060597503739295 124.335044865255 0.000630409018214721 -10.1884240156963 0.000607996125552598 125.686457699254 
                               0.00108556769287664 127.427373750814 0.00098592398074111 -131.647884721463 0.476833151384869 4.96449553877501 0.222812324499432 -123.530329393598 
                               0.000577742134090636 122.693675938698 0.000528645521849675 -40.3394372452042 0.000615706433745548 126.089830545317 0.00062157574387638 -11.4062932828618 
                               0.000485134773529176 -74.8537785537618 0.000336867481667898 12.5856787209214 0.000543444441752051 -39.2216495019787 0.000577742134090637 122.693675938698 
                               0.255856895118408 -131.740247155395 0.363603048068913 -15.94366700035  0.000298800874095261 -106.929748490879 0.000544110078175301 135.006773196266 
                               0.000323198061666482 14.6565887134295 0.000473784153868581 -76.4207267678207 0.00060597503739295 124.335044865255 0.000528645521849675 -40.3394372452042 
                               0.363603048068913 -15.94366700035  0.255822865117457 -131.739826541585 0.000520581533190601 137.35754089379  0.00033786132891663 -107.552119378257 
                               0.000512483086484167 -165.436425876863 0.000287259692149109 -95.5362451723697 0.000630409018214721 -10.1884240156963 0.000615706433745548 126.089830545317 
                               0.000298800874095261 -106.929748490879 0.000520581533190601 137.35754089379  0.259392200487179 -135.839013538241 0.3038558078616  150.858937757971 
                               0.000290968228163101 -93.3319639555564 0.000519487542244094 -166.80723053074 0.000607996125552598 125.686457699254 0.000621575743876381 -11.4062932828618 
                               0.000544110078175301 135.006773196266 0.00033786132891663 -107.552119378257 0.3038558078616  150.858937757971 0.260283152332122 -135.814903294799 
! Gamma         0.286592234164772 1087.78399394737 0.286586574067548 1087.78379902474 0.286594744262825 1087.78409010649 0.286588646543986 1087.78397355915 0.286586217543025 1087.78385856469 0.286584357238968 1087.78384190546 0.286599558614485 1087.78406051332 0.286586012800682 1087.78387178831 
! Port Impedance         527.592157409089 0.080568950642823 527.592584777882 0.0805683434804634 527.591854243609 0.0805692180902406 527.592206305402 0.080569004413112 527.592273727812 0.0805681936952237 527.592542640785 0.0805689328432942 527.592141335047 0.0805693862628857 527.59239671318  0.0805686860670272 
71.75                          0.230775518067973 -166.45436289503 0.48682773447398 66.814906842566  0.00122947982615322 135.705504510443 0.000566813906657545 49.436319517236  
                               0.000224273131447632 -166.416628873851 0.000130563261650373 -18.4569973803039 0.000201531895202102 15.909823014746  0.000137497479916934 146.256894200052 
                               0.48682773447398 66.814906842566  0.231201178418709 -166.313990051029 0.000565521364789107 48.0527188443514 0.00122889433614905 134.7280672567   
                               0.000128933729783229 -29.0829079171302 0.000233051023086936 -168.831845799865 0.000135553374573168 146.211546001604 0.000222865500928334 19.3204412086864 
                               0.00122947982615322 135.705504510443 0.000565521364789107 48.0527188443514 0.273804172009561 -135.593229735579 0.47682111280834 -24.1495080942793 
                               0.000480932590918826 -142.588147121923 0.000421472896657387 8.06530028575576 0.000264722127436677 169.395311979277 0.000402208911895832 12.8352618522139 
                               0.000566813906657545 49.436319517236  0.00122889433614905 134.7280672567   0.47682111280834 -24.1495080942793 0.273722738153741 -135.531992818806 
                               0.000402397609874609 3.66114839396727 0.000450837099077832 -143.601867190509 0.000401345495330772 10.547649157236  0.000255860998803748 169.670218019626 
                               0.000224273131447632 -166.416628873851 0.000128933729783229 -29.0829079171302 0.000480932590918826 -142.588147121923 0.000402397609874608 3.66114839396728 
                               0.285272133958906 -149.456643121339 0.366205871075729 -58.8417461062236 0.000825547217724403 86.3617781060942 0.000327673340980189 -118.60212810146 
                               0.000130563261650373 -18.4569973803039 0.000233051023086936 -168.831845799865 0.000421472896657387 8.06530028575576 0.000450837099077831 -143.601867190509 
                               0.366205871075729 -58.8417461062236 0.285229918446906 -149.459283065609 0.000346967707525935 -123.940217881862 0.000829205970712604 87.1582275557319 
                               0.000201531895202102 15.909823014746  0.000135553374573168 146.211546001604 0.000264722127436677 169.395311979277 0.000401345495330772 10.547649157236  
                               0.000825547217724403 86.3617781060942 0.000346967707525935 -123.940217881862 0.267771672407458 -153.739430646926 0.306958028690347 98.7141711897093 
                               0.000137497479916934 146.256894200052 0.000222865500928334 19.3204412086864 0.000402208911895832 12.8352618522139 0.000255860998803748 169.670218019626 
                               0.000327673340980189 -118.60212810146 0.000829205970712604 87.1582275557319 0.306958028690347 98.7141711897093 0.268625033686621 -153.657630859041 
! Gamma         0.28560901210832 1094.99172243878 0.285603322674931 1094.9915287267  0.285611532919065 1094.99181799114 0.285605404500276 1094.99170213346 0.28560296305498 1094.99158786891 0.285601093583925 1094.99157129614 0.285616371830536 1094.99178865874 0.285602757409963 1094.99160100229 
! Port Impedance         525.951799148282 0.0790286653736724 525.952224037254 0.0790280170473837 525.951497503176 0.0790289504630398 525.951847822026 0.0790286930565133 525.951914341408 0.0790278620256194 525.952182333708 0.0790285912027657 525.95178343993  0.0790291481940964 525.952037028339 0.0790283550683274 
72                             0.19266600113647 -170.27391625157 0.496904691994972 37.8427419024189 0.00193689027005666 58.9530517022956 0.000670115319529297 -40.624675503846 
                               0.001015076002639 17.4996531756043 0.000473536495123453 173.614027264356 0.000253858380414643 -11.3837155721857 0.000315754022976268 -66.9925773285708 